
     Program BANDS v.6.1 (svn rev. 13369) starts on  9Sep2018 at 10:52:35 

     This program is part of the open-source Quantum ESPRESSO suite
     for quantum simulation of materials; please cite
         "P. Giannozzi et al., J. Phys.:Condens. Matter 21 395502 (2009);
          URL http://www.quantum-espresso.org", 
     in publications or presentations arising from this work. More details at
     http://www.quantum-espresso.org/quote

     Parallel version (MPI), running on     1 processors

     Reading data from directory:
     ./SCF.save

   Info: using nr1, nr2, nr3 values from input

   Info: using nr1, nr2, nr3 values from input

     IMPORTANT: XC functional enforced from input :
     Exchange-correlation      =  SLA  PW   PBX  PBC ( 1  4  3  4 0 0)
     Any further DFT definition will be discarded
     Please, verify this is what you really want

               file Si.pbe-n-kjpaw_psl.0.1.UPF: wavefunction(s)  3S renormalized
 
     G-vector sticks info
     --------------------
     sticks:   dense  smooth     PW     G-vecs:    dense   smooth      PW
     Sum         511     511    163                 7631     7631    1363
 

     Check: negative/imaginary core charge=   -0.000003    0.000000
     high-symmetry point: -1.0000 0.5000 0.0000   x coordinate   0.0000
     high-symmetry point:  0.0000 0.0000 0.0000   x coordinate   1.1180
     high-symmetry point: -1.0000 0.0000 0.0000   x coordinate   2.1180
     high-symmetry point: -1.0000 0.5000 0.0000   x coordinate   2.6180
     high-symmetry point: -0.5000 0.5000 0.5000   x coordinate   3.3251
     high-symmetry point:  0.0000 0.0000 0.0000   x coordinate   4.1912

     Plottable bands (eV) written to file bands.dat.gnu
     Bands written to file bands.dat

 **************************************************************************

                    xk=(  -1.00000,   0.50000,   0.00000  )

     point group S_4 (-4)   
     there are  4 classes
     the character table:

       E     S4^3  C2    S4   
A      1.00  1.00  1.00  1.00
B      1.00 -1.00  1.00 -1.00
E      1.00  0.00 -1.00  0.00
E*     1.00  0.00 -1.00  0.00
     imaginary part
A      0.00  0.00  0.00  0.00
B      0.00  0.00  0.00  0.00
E      0.00  1.00  0.00 -1.00
E*     0.00 -1.00  0.00  1.00

     the symmetry operations in each class and the name of the first element:

     E        1
                                                                 
     S4^3     3
                                                                 
     C2       2
                                                                 
     S4       4
                                                                 

     Band symmetry, S_4 (-4)    point group:

     e(  1 -  1) =     -1.44585  eV     1   --> A    W_1       
     e(  2 -  2) =     -1.44544  eV     1   --> E    W_4       
     e(  3 -  3) =      2.35679  eV     1   --> E*   W_2       
     e(  4 -  4) =      2.35690  eV     1   --> B    W_3       
     e(  5 -  5) =     10.48335  eV     1   --> B    W_3       
     e(  6 -  6) =     10.48346  eV     1   --> E*   W_2       
     e(  7 -  7) =     11.21096  eV     1   --> E    W_4       
     e(  8 -  8) =     11.21137  eV     1   --> A    W_1       

 **************************************************************************

 **************************************************************************

                    xk=(  -0.96667,   0.48333,   0.00000  )

     point group C_1 (1)    
     there are  1 classes
     the character table:

       E    
A      1.00

     the symmetry operations in each class and the name of the first element:

     E        1
                                                                 

     Band symmetry, C_1 (1)     point group:

     e(  1 -  1) =     -1.60729  eV     1   --> A              
     e(  2 -  2) =     -1.28755  eV     1   --> A              
     e(  3 -  3) =      2.25802  eV     1   --> A              
     e(  4 -  4) =      2.47747  eV     1   --> A              
     e(  5 -  5) =     10.37333  eV     1   --> A              
     e(  6 -  6) =     10.45967  eV     1   --> A              
     e(  7 -  7) =     11.08825  eV     1   --> A              
     e(  8 -  8) =     11.49256  eV     1   --> A              

 **************************************************************************

 **************************************************************************

                    xk=(  -0.93333,   0.46667,   0.00000  )

     Band symmetry, C_1 (1)     point group:

     e(  1 -  1) =     -1.78468  eV     1   --> A              
     e(  2 -  2) =     -1.11986  eV     1   --> A              
     e(  3 -  3) =      2.19226  eV     1   --> A              
     e(  4 -  4) =      2.60821  eV     1   --> A              
     e(  5 -  5) =     10.27289  eV     1   --> A              
     e(  6 -  6) =     10.30495  eV     1   --> A              
     e(  7 -  7) =     10.97706  eV     1   --> A              
     e(  8 -  8) =     11.93183  eV     1   --> A              

 **************************************************************************

 **************************************************************************

                    xk=(  -0.90000,   0.45000,   0.00000  )

     Band symmetry, C_1 (1)     point group:

     e(  1 -  1) =     -1.97573  eV     1   --> A              
     e(  2 -  2) =     -0.94260  eV     1   --> A              
     e(  3 -  3) =      2.15861  eV     1   --> A              
     e(  4 -  4) =      2.74839  eV     1   --> A              
     e(  5 -  5) =     10.12503  eV     1   --> A              
     e(  6 -  6) =     10.18284  eV     1   --> A              
     e(  7 -  7) =     10.87743  eV     1   --> A              
     e(  8 -  8) =     12.42145  eV     1   --> A              

 **************************************************************************

 **************************************************************************

                    xk=(  -0.86667,   0.43333,   0.00000  )

     Band symmetry, C_1 (1)     point group:

     e(  1 -  1) =     -2.17773  eV     1   --> A              
     e(  2 -  2) =     -0.75580  eV     1   --> A              
     e(  3 -  3) =      2.15523  eV     1   --> A              
     e(  4 -  4) =      2.89725  eV     1   --> A              
     e(  5 -  5) =      9.94479  eV     1   --> A              
     e(  6 -  6) =     10.10405  eV     1   --> A              
     e(  7 -  7) =     10.78900  eV     1   --> A              
     e(  8 -  8) =     12.93475  eV     1   --> A              

 **************************************************************************

 **************************************************************************

                    xk=(  -0.83333,   0.41667,   0.00000  )

     Band symmetry, C_1 (1)     point group:

     e(  1 -  1) =     -2.38776  eV     1   --> A              
     e(  2 -  2) =     -0.55947  eV     1   --> A              
     e(  3 -  3) =      2.17979  eV     1   --> A              
     e(  4 -  4) =      3.05388  eV     1   --> A              
     e(  5 -  5) =      9.77139  eV     1   --> A              
     e(  6 -  6) =     10.03757  eV     1   --> A              
     e(  7 -  7) =     10.71110  eV     1   --> A              
     e(  8 -  8) =     13.46253  eV     1   --> A              

 **************************************************************************

 **************************************************************************

                    xk=(  -0.80000,   0.40000,   0.00000  )

     Band symmetry, C_1 (1)     point group:

     e(  1 -  1) =     -2.60289  eV     1   --> A              
     e(  2 -  2) =     -0.35365  eV     1   --> A              
     e(  3 -  3) =      2.22983  eV     1   --> A              
     e(  4 -  4) =      3.21729  eV     1   --> A              
     e(  5 -  5) =      9.60749  eV     1   --> A              
     e(  6 -  6) =      9.98446  eV     1   --> A              
     e(  7 -  7) =     10.64285  eV     1   --> A              
     e(  8 -  8) =     13.99953  eV     1   --> A              

 **************************************************************************

 **************************************************************************

                    xk=(  -0.76667,   0.38333,   0.00000  )

     Band symmetry, C_1 (1)     point group:

     e(  1 -  1) =     -2.82046  eV     1   --> A              
     e(  2 -  2) =     -0.13835  eV     1   --> A              
     e(  3 -  3) =      2.30297  eV     1   --> A              
     e(  4 -  4) =      3.38638  eV     1   --> A              
     e(  5 -  5) =      9.45435  eV     1   --> A              
     e(  6 -  6) =      9.94588  eV     1   --> A              
     e(  7 -  7) =     10.58324  eV     1   --> A              
     e(  8 -  8) =     14.31107  eV     1   --> A              

 **************************************************************************

 **************************************************************************

                    xk=(  -0.73333,   0.36667,   0.00000  )

     Band symmetry, C_1 (1)     point group:

     e(  1 -  1) =     -3.03808  eV     1   --> A              
     e(  2 -  2) =      0.08639  eV     1   --> A              
     e(  3 -  3) =      2.39699  eV     1   --> A              
     e(  4 -  4) =      3.55991  eV     1   --> A              
     e(  5 -  5) =      9.31265  eV     1   --> A              
     e(  6 -  6) =      9.92298  eV     1   --> A              
     e(  7 -  7) =     10.53109  eV     1   --> A              
     e(  8 -  8) =     13.96001  eV     1   --> A              

 **************************************************************************

 **************************************************************************

                    xk=(  -0.70000,   0.35000,  -0.00000  )

     Band symmetry, C_1 (1)     point group:

     e(  1 -  1) =     -3.25370  eV     1   --> A              
     e(  2 -  2) =      0.32054  eV     1   --> A              
     e(  3 -  3) =      2.50993  eV     1   --> A              
     e(  4 -  4) =      3.73655  eV     1   --> A              
     e(  5 -  5) =      9.18276  eV     1   --> A              
     e(  6 -  6) =      9.91672  eV     1   --> A              
     e(  7 -  7) =     10.48518  eV     1   --> A              
     e(  8 -  8) =     13.61532  eV     1   --> A              

 **************************************************************************

 **************************************************************************

                    xk=(  -0.66667,   0.33333,   0.00000  )

     Band symmetry, C_1 (1)     point group:

     e(  1 -  1) =     -3.46560  eV     1   --> A              
     e(  2 -  2) =      0.56405  eV     1   --> A              
     e(  3 -  3) =      2.64001  eV     1   --> A              
     e(  4 -  4) =      3.91493  eV     1   --> A              
     e(  5 -  5) =      9.06496  eV     1   --> A              
     e(  6 -  6) =      9.92791  eV     1   --> A              
     e(  7 -  7) =     10.44429  eV     1   --> A              
     e(  8 -  8) =     13.27814  eV     1   --> A              

 **************************************************************************

 **************************************************************************

                    xk=(  -0.63333,   0.31667,  -0.00000  )

     Band symmetry, C_1 (1)     point group:

     e(  1 -  1) =     -3.67232  eV     1   --> A              
     e(  2 -  2) =      0.81684  eV     1   --> A              
     e(  3 -  3) =      2.78565  eV     1   --> A              
     e(  4 -  4) =      4.09355  eV     1   --> A              
     e(  5 -  5) =      8.95930  eV     1   --> A              
     e(  6 -  6) =      9.95650  eV     1   --> A              
     e(  7 -  7) =     10.40750  eV     1   --> A              
     e(  8 -  8) =     12.94868  eV     1   --> A              

 **************************************************************************

 **************************************************************************

                    xk=(  -0.60000,   0.30000,   0.00000  )

     Band symmetry, C_1 (1)     point group:

     e(  1 -  1) =     -3.87267  eV     1   --> A              
     e(  2 -  2) =      1.07884  eV     1   --> A              
     e(  3 -  3) =      2.94544  eV     1   --> A              
     e(  4 -  4) =      4.27096  eV     1   --> A              
     e(  5 -  5) =      8.86591  eV     1   --> A              
     e(  6 -  6) =     10.00111  eV     1   --> A              
     e(  7 -  7) =     10.37515  eV     1   --> A              
     e(  8 -  8) =     12.62732  eV     1   --> A              

 **************************************************************************

 **************************************************************************

                    xk=(  -0.56667,   0.28333,   0.00000  )

     Band symmetry, C_1 (1)     point group:

     e(  1 -  1) =     -4.06564  eV     1   --> A              
     e(  2 -  2) =      1.34994  eV     1   --> A              
     e(  3 -  3) =      3.11805  eV     1   --> A              
     e(  4 -  4) =      4.44572  eV     1   --> A              
     e(  5 -  5) =      8.78476  eV     1   --> A              
     e(  6 -  6) =     10.05583  eV     1   --> A              
     e(  7 -  7) =     10.35157  eV     1   --> A              
     e(  8 -  8) =     12.31426  eV     1   --> A              

 **************************************************************************

 **************************************************************************

                    xk=(  -0.53333,   0.26667,   0.00000  )

     Band symmetry, C_1 (1)     point group:

     e(  1 -  1) =     -4.25042  eV     1   --> A              
     e(  2 -  2) =      1.62998  eV     1   --> A              
     e(  3 -  3) =      3.30221  eV     1   --> A              
     e(  4 -  4) =      4.61649  eV     1   --> A              
     e(  5 -  5) =      8.71588  eV     1   --> A              
     e(  6 -  6) =     10.10221  eV     1   --> A              
     e(  7 -  7) =     10.35327  eV     1   --> A              
     e(  8 -  8) =     12.00965  eV     1   --> A              

 **************************************************************************

 **************************************************************************

                    xk=(  -0.50000,   0.25000,   0.00000  )

     Band symmetry, C_1 (1)     point group:

     e(  1 -  1) =     -4.42630  eV     1   --> A              
     e(  2 -  2) =      1.91876  eV     1   --> A              
     e(  3 -  3) =      3.49667  eV     1   --> A              
     e(  4 -  4) =      4.78205  eV     1   --> A              
     e(  5 -  5) =      8.65912  eV     1   --> A              
     e(  6 -  6) =     10.10908  eV     1   --> A              
     e(  7 -  7) =     10.40880  eV     1   --> A              
     e(  8 -  8) =     11.71361  eV     1   --> A              

 **************************************************************************

 **************************************************************************

                    xk=(  -0.46667,   0.23333,   0.00000  )

     Band symmetry, C_1 (1)     point group:

     e(  1 -  1) =     -4.59271  eV     1   --> A              
     e(  2 -  2) =      2.21605  eV     1   --> A              
     e(  3 -  3) =      3.70016  eV     1   --> A              
     e(  4 -  4) =      4.94140  eV     1   --> A              
     e(  5 -  5) =      8.61440  eV     1   --> A              
     e(  6 -  6) =     10.07424  eV     1   --> A              
     e(  7 -  7) =     10.51736  eV     1   --> A              
     e(  8 -  8) =     11.42634  eV     1   --> A              

 **************************************************************************

 **************************************************************************

                    xk=(  -0.43333,   0.21667,   0.00000  )

     Band symmetry, C_1 (1)     point group:

     e(  1 -  1) =     -4.74917  eV     1   --> A              
     e(  2 -  2) =      2.52149  eV     1   --> A              
     e(  3 -  3) =      3.91136  eV     1   --> A              
     e(  4 -  4) =      5.09373  eV     1   --> A              
     e(  5 -  5) =      8.58146  eV     1   --> A              
     e(  6 -  6) =     10.01469  eV     1   --> A              
     e(  7 -  7) =     10.65774  eV     1   --> A              
     e(  8 -  8) =     11.14797  eV     1   --> A              

 **************************************************************************

 **************************************************************************

                    xk=(  -0.40000,   0.20000,   0.00000  )

     Band symmetry, C_1 (1)     point group:

     e(  1 -  1) =     -4.89527  eV     1   --> A              
     e(  2 -  2) =      2.83465  eV     1   --> A              
     e(  3 -  3) =      4.12882  eV     1   --> A              
     e(  4 -  4) =      5.23845  eV     1   --> A              
     e(  5 -  5) =      8.55999  eV     1   --> A              
     e(  6 -  6) =      9.93927  eV     1   --> A              
     e(  7 -  7) =     10.81527  eV     1   --> A              
     e(  8 -  8) =     10.87869  eV     1   --> A              

 **************************************************************************

 **************************************************************************

                    xk=(  -0.36667,   0.18333,   0.00000  )

     Band symmetry, C_1 (1)     point group:

     e(  1 -  1) =     -5.03067  eV     1   --> A              
     e(  2 -  2) =      3.15493  eV     1   --> A              
     e(  3 -  3) =      4.35095  eV     1   --> A              
     e(  4 -  4) =      5.37517  eV     1   --> A              
     e(  5 -  5) =      8.54958  eV     1   --> A              
     e(  6 -  6) =      9.85179  eV     1   --> A              
     e(  7 -  7) =     10.61873  eV     1   --> A              
     e(  8 -  8) =     10.97646  eV     1   --> A              

 **************************************************************************

 **************************************************************************

                    xk=(  -0.33333,   0.16667,   0.00000  )

     Band symmetry, C_1 (1)     point group:

     e(  1 -  1) =     -5.15509  eV     1   --> A              
     e(  2 -  2) =      3.48154  eV     1   --> A              
     e(  3 -  3) =      4.57593  eV     1   --> A              
     e(  4 -  4) =      5.50358  eV     1   --> A              
     e(  5 -  5) =      8.54959  eV     1   --> A              
     e(  6 -  6) =      9.75479  eV     1   --> A              
     e(  7 -  7) =     10.36839  eV     1   --> A              
     e(  8 -  8) =     11.12059  eV     1   --> A              

 **************************************************************************

 **************************************************************************

                    xk=(  -0.30000,   0.15000,  -0.00000  )

     Band symmetry, C_1 (1)     point group:

     e(  1 -  1) =     -5.26827  eV     1   --> A              
     e(  2 -  2) =      3.81335  eV     1   --> A              
     e(  3 -  3) =      4.80167  eV     1   --> A              
     e(  4 -  4) =      5.62346  eV     1   --> A              
     e(  5 -  5) =      8.55920  eV     1   --> A              
     e(  6 -  6) =      9.65069  eV     1   --> A              
     e(  7 -  7) =     10.12817  eV     1   --> A              
     e(  8 -  8) =     11.21088  eV     1   --> A              

 **************************************************************************

 **************************************************************************

                    xk=(  -0.26667,   0.13333,  -0.00000  )

     Band symmetry, C_1 (1)     point group:

     e(  1 -  1) =     -5.37001  eV     1   --> A              
     e(  2 -  2) =      4.14882  eV     1   --> A              
     e(  3 -  3) =      5.02569  eV     1   --> A              
     e(  4 -  4) =      5.73452  eV     1   --> A              
     e(  5 -  5) =      8.57730  eV     1   --> A              
     e(  6 -  6) =      9.54199  eV     1   --> A              
     e(  7 -  7) =      9.89879  eV     1   --> A              
     e(  8 -  8) =     11.19477  eV     1   --> A              

 **************************************************************************

 **************************************************************************

                    xk=(  -0.23333,   0.11667,   0.00000  )

     Band symmetry, C_1 (1)     point group:

     e(  1 -  1) =     -5.46015  eV     1   --> A              
     e(  2 -  2) =      4.48573  eV     1   --> A              
     e(  3 -  3) =      5.24502  eV     1   --> A              
     e(  4 -  4) =      5.83634  eV     1   --> A              
     e(  5 -  5) =      8.60242  eV     1   --> A              
     e(  6 -  6) =      9.43111  eV     1   --> A              
     e(  7 -  7) =      9.68139  eV     1   --> A              
     e(  8 -  8) =     11.04386  eV     1   --> A              

 **************************************************************************

 **************************************************************************

                    xk=(  -0.20000,   0.10000,   0.00000  )

     Band symmetry, C_1 (1)     point group:

     e(  1 -  1) =     -5.53853  eV     1   --> A              
     e(  2 -  2) =      4.82077  eV     1   --> A              
     e(  3 -  3) =      5.45602  eV     1   --> A              
     e(  4 -  4) =      5.92830  eV     1   --> A              
     e(  5 -  5) =      8.63271  eV     1   --> A              
     e(  6 -  6) =      9.32011  eV     1   --> A              
     e(  7 -  7) =      9.47766  eV     1   --> A              
     e(  8 -  8) =     10.79158  eV     1   --> A              

 **************************************************************************

 **************************************************************************

                    xk=(  -0.16667,   0.08333,  -0.00000  )

     Band symmetry, C_1 (1)     point group:

     e(  1 -  1) =     -5.60505  eV     1   --> A              
     e(  2 -  2) =      5.14890  eV     1   --> A              
     e(  3 -  3) =      5.65413  eV     1   --> A              
     e(  4 -  4) =      6.00949  eV     1   --> A              
     e(  5 -  5) =      8.66586  eV     1   --> A              
     e(  6 -  6) =      9.21023  eV     1   --> A              
     e(  7 -  7) =      9.29015  eV     1   --> A              
     e(  8 -  8) =     10.49393  eV     1   --> A              

 **************************************************************************

 **************************************************************************

                    xk=(  -0.13333,   0.06667,   0.00000  )

     Band symmetry, C_1 (1)     point group:

     e(  1 -  1) =     -5.65959  eV     1   --> A              
     e(  2 -  2) =      5.46223  eV     1   --> A              
     e(  3 -  3) =      5.83362  eV     1   --> A              
     e(  4 -  4) =      6.07876  eV     1   --> A              
     e(  5 -  5) =      8.69915  eV     1   --> A              
     e(  6 -  6) =      9.10157  eV     1   --> A              
     e(  7 -  7) =      9.12264  eV     1   --> A              
     e(  8 -  8) =     10.19511  eV     1   --> A              

 **************************************************************************

 **************************************************************************

                    xk=(  -0.10000,   0.05000,   0.00000  )

     Band symmetry, C_1 (1)     point group:

     e(  1 -  1) =     -5.70209  eV     1   --> A              
     e(  2 -  2) =      5.74816  eV     1   --> A              
     e(  3 -  3) =      5.98738  eV     1   --> A              
     e(  4 -  4) =      6.13477  eV     1   --> A              
     e(  5 -  5) =      8.72957  eV     1   --> A              
     e(  6 -  6) =      8.98040  eV     1   --> A              
     e(  7 -  7) =      8.99377  eV     1   --> A              
     e(  8 -  8) =      9.92899  eV     1   --> A              

 **************************************************************************

 **************************************************************************

                    xk=(  -0.06667,   0.03333,  -0.00000  )

     Band symmetry, C_1 (1)     point group:

     e(  1 -  1) =     -5.73249  eV     1   --> A              
     e(  2 -  2) =      5.98701  eV     1   --> A              
     e(  3 -  3) =      6.10700  eV     1   --> A              
     e(  4 -  4) =      6.17611  eV     1   --> A              
     e(  5 -  5) =      8.75409  eV     1   --> A              
     e(  6 -  6) =      8.87029  eV     1   --> A              
     e(  7 -  7) =      8.89045  eV     1   --> A              
     e(  8 -  8) =      9.72373  eV     1   --> A              

 **************************************************************************

 **************************************************************************

                    xk=(  -0.03333,   0.01667,  -0.00000  )

     Band symmetry, C_1 (1)     point group:

     e(  1 -  1) =     -5.75074  eV     1   --> A              
     e(  2 -  2) =      6.15087  eV     1   --> A              
     e(  3 -  3) =      6.18361  eV     1   --> A              
     e(  4 -  4) =      6.20152  eV     1   --> A              
     e(  5 -  5) =      8.77004  eV     1   --> A              
     e(  6 -  6) =      8.79989  eV     1   --> A              
     e(  7 -  7) =      8.80820  eV     1   --> A              
     e(  8 -  8) =      9.59771  eV     1   --> A              

 **************************************************************************

 **************************************************************************

                    xk=(   0.00000,   0.00000,   0.00000  )

     point group T_d (-43m) 
     there are  5 classes
     the character table:

       E     8C3   3C2   6S4   6s_d 
A_1    1.00  1.00  1.00  1.00  1.00
A_2    1.00  1.00  1.00 -1.00 -1.00
E      2.00 -1.00  2.00  0.00  0.00
T_1    3.00  0.00 -1.00  1.00 -1.00
T_2    3.00  0.00 -1.00 -1.00  1.00

     the symmetry operations in each class and the name of the first element:

     E        1
                                                                 
     8C3      5    7    8    6   12    9   10   11
                                                                 
     3C2      2    3    4
                                                                 
     6S4     15   16   20   19   23   24
                                                                 
     6s_d    13   14   17   18   21   22
                                                                 

     Band symmetry, T_d (-43m)  point group:

     e(  1 -  1) =     -5.75683  eV     1   --> A_1  G_1  P_1  
     e(  2 -  4) =      6.21009  eV     3   --> T_2  G_15 P_4  
     e(  5 -  7) =      8.77558  eV     3   --> T_2  G_15 P_4  
     e(  8 -  8) =      9.55590  eV     1   --> A_1  G_1  P_1  

 **************************************************************************

 **************************************************************************

                    xk=(  -0.03333,   0.00000,   0.00000  )

     point group C_2v (mm2) 
     there are  4 classes
     the character table:

       E     C2    s_v   s_v' 
A_1    1.00  1.00  1.00  1.00
A_2    1.00  1.00 -1.00 -1.00
B_1    1.00 -1.00  1.00 -1.00
B_2    1.00 -1.00 -1.00  1.00

     the symmetry operations in each class and the name of the first element:

     E        1
                                                                 
     C2       2
                                                                 
     s_v      3
                                                                 
     s_v'     4
                                                                 

     Band symmetry, C_2v (mm2)  point group:

     e(  1 -  1) =     -5.75196  eV     1   --> A_1  D_1  S_1  
     e(  2 -  2) =      6.17650  eV     1   --> A_1  D_1  S_1  
     e(  3 -  4) =      6.18894  eV     2   --> B_1  D_3  S_3  
     e(  3 -  4) =      6.18894  eV     2   --> B_2  D_4  S_4  
     e(  5 -  5) =      8.76342  eV     1   --> A_1  D_1  S_1  
     e(  6 -  7) =      8.80271  eV     2   --> B_1  D_3  S_3  
     e(  6 -  7) =      8.80271  eV     2   --> B_2  D_4  S_4  
     e(  8 -  8) =      9.58882  eV     1   --> A_1  D_1  S_1  

 **************************************************************************

 **************************************************************************

                    xk=(  -0.06667,   0.00000,   0.00000  )

     Band symmetry, C_2v (mm2)  point group:

     e(  1 -  1) =     -5.73735  eV     1   --> A_1  D_1  S_1  
     e(  2 -  2) =      6.07966  eV     1   --> A_1  D_1  S_1  
     e(  3 -  4) =      6.12814  eV     2   --> B_1  D_3  S_3  
     e(  3 -  4) =      6.12814  eV     2   --> B_2  D_4  S_4  
     e(  5 -  5) =      8.72760  eV     1   --> A_1  D_1  S_1  
     e(  6 -  7) =      8.88147  eV     2   --> B_1  D_3  S_3  
     e(  6 -  7) =      8.88147  eV     2   --> B_2  D_4  S_4  
     e(  8 -  8) =      9.68305  eV     1   --> A_1  D_1  S_1  

 **************************************************************************

 **************************************************************************

                    xk=(  -0.10000,   0.00000,   0.00000  )

     Band symmetry, C_2v (mm2)  point group:

     e(  1 -  1) =     -5.71301  eV     1   --> A_1  D_1  S_1  
     e(  2 -  2) =      5.92944  eV     1   --> A_1  D_1  S_1  
     e(  3 -  4) =      6.03435  eV     2   --> B_1  D_3  S_3  
     e(  3 -  4) =      6.03435  eV     2   --> B_2  D_4  S_4  
     e(  5 -  5) =      8.67000  eV     1   --> A_1  D_1  S_1  
     e(  6 -  7) =      9.00514  eV     2   --> B_1  D_3  S_3  
     e(  6 -  7) =      9.00514  eV     2   --> B_2  D_4  S_4  
     e(  8 -  8) =      9.82671  eV     1   --> A_1  D_1  S_1  

 **************************************************************************

 **************************************************************************

                    xk=(  -0.13333,   0.00000,   0.00000  )

     Band symmetry, C_2v (mm2)  point group:

     e(  1 -  1) =     -5.67896  eV     1   --> A_1  D_1  S_1  
     e(  2 -  2) =      5.73768  eV     1   --> A_1  D_1  S_1  
     e(  3 -  4) =      5.91577  eV     2   --> B_1  D_3  S_3  
     e(  3 -  4) =      5.91577  eV     2   --> B_2  D_4  S_4  
     e(  5 -  5) =      8.59338  eV     1   --> A_1  D_1  S_1  
     e(  6 -  7) =      9.16546  eV     2   --> B_1  D_3  S_3  
     e(  6 -  7) =      9.16546  eV     2   --> B_2  D_4  S_4  
     e(  8 -  8) =     10.00405  eV     1   --> A_1  D_1  S_1  

 **************************************************************************

 **************************************************************************

                    xk=(  -0.16667,   0.00000,   0.00000  )

     Band symmetry, C_2v (mm2)  point group:

     e(  1 -  1) =     -5.63522  eV     1   --> A_1  D_1  S_1  
     e(  2 -  2) =      5.51513  eV     1   --> A_1  D_1  S_1  
     e(  3 -  4) =      5.78005  eV     2   --> B_1  D_3  S_3  
     e(  3 -  4) =      5.78005  eV     2   --> B_2  D_4  S_4  
     e(  5 -  5) =      8.50100  eV     1   --> A_1  D_1  S_1  
     e(  6 -  7) =      9.35467  eV     2   --> B_1  D_3  S_3  
     e(  6 -  7) =      9.35467  eV     2   --> B_2  D_4  S_4  
     e(  8 -  8) =     10.19711  eV     1   --> A_1  D_1  S_1  

 **************************************************************************

 **************************************************************************

                    xk=(  -0.20000,   0.00000,   0.00000  )

     Band symmetry, C_2v (mm2)  point group:

     e(  1 -  1) =     -5.58181  eV     1   --> A_1  D_1  S_1  
     e(  2 -  2) =      5.27033  eV     1   --> A_1  D_1  S_1  
     e(  3 -  4) =      5.63345  eV     2   --> B_1  D_3  S_3  
     e(  3 -  4) =      5.63345  eV     2   --> B_2  D_4  S_4  
     e(  5 -  5) =      8.39632  eV     1   --> A_1  D_1  S_1  
     e(  6 -  7) =      9.56642  eV     2   --> B_1  D_3  S_3  
     e(  6 -  7) =      9.56642  eV     2   --> B_2  D_4  S_4  
     e(  8 -  8) =     10.38475  eV     1   --> A_1  D_1  S_1  

 **************************************************************************

 **************************************************************************

                    xk=(  -0.23333,   0.00000,   0.00000  )

     Band symmetry, C_2v (mm2)  point group:

     e(  1 -  1) =     -5.51877  eV     1   --> A_1  D_1  S_1  
     e(  2 -  2) =      5.00955  eV     1   --> A_1  D_1  S_1  
     e(  3 -  4) =      5.48075  eV     2   --> B_1  D_3  S_3  
     e(  3 -  4) =      5.48075  eV     2   --> B_2  D_4  S_4  
     e(  5 -  5) =      8.28265  eV     1   --> A_1  D_1  S_1  
     e(  6 -  7) =      9.79580  eV     2   --> B_1  D_3  S_3  
     e(  6 -  7) =      9.79580  eV     2   --> B_2  D_4  S_4  
     e(  8 -  8) =     10.53936  eV     1   --> A_1  D_1  S_1  

 **************************************************************************

 **************************************************************************

                    xk=(  -0.26667,   0.00000,   0.00000  )

     Band symmetry, C_2v (mm2)  point group:

     e(  1 -  1) =     -5.44614  eV     1   --> A_1  D_1  S_1  
     e(  2 -  2) =      4.73728  eV     1   --> A_1  D_1  S_1  
     e(  3 -  4) =      5.32548  eV     2   --> B_1  D_3  S_3  
     e(  3 -  4) =      5.32548  eV     2   --> B_2  D_4  S_4  
     e(  5 -  5) =      8.16303  eV     1   --> A_1  D_1  S_1  
     e(  6 -  7) =     10.03916  eV     2   --> B_1  D_3  S_3  
     e(  6 -  7) =     10.03916  eV     2   --> B_2  D_4  S_4  
     e(  8 -  8) =     10.62613  eV     1   --> A_1  D_1  S_1  

 **************************************************************************

 **************************************************************************

                    xk=(  -0.30000,   0.00000,   0.00000  )

     Band symmetry, C_2v (mm2)  point group:

     e(  1 -  1) =     -5.36396  eV     1   --> A_1  D_1  S_1  
     e(  2 -  2) =      4.45671  eV     1   --> A_1  D_1  S_1  
     e(  3 -  4) =      5.17023  eV     2   --> B_1  D_3  S_3  
     e(  3 -  4) =      5.17023  eV     2   --> B_2  D_4  S_4  
     e(  5 -  5) =      8.04013  eV     1   --> A_1  D_1  S_1  
     e(  6 -  7) =     10.29375  eV     2   --> B_1  D_3  S_3  
     e(  6 -  7) =     10.29375  eV     2   --> B_2  D_4  S_4  
     e(  8 -  8) =     10.61550  eV     1   --> A_1  D_1  S_1  

 **************************************************************************

 **************************************************************************

                    xk=(  -0.33333,   0.00000,   0.00000  )

     Band symmetry, C_2v (mm2)  point group:

     e(  1 -  1) =     -5.27228  eV     1   --> A_1  D_1  S_1  
     e(  2 -  2) =      4.17011  eV     1   --> A_1  D_1  S_1  
     e(  3 -  4) =      5.01693  eV     2   --> B_1  D_3  S_3  
     e(  3 -  4) =      5.01693  eV     2   --> B_2  D_4  S_4  
     e(  5 -  5) =      7.91626  eV     1   --> A_1  D_1  S_1  
     e(  6 -  6) =     10.50602  eV     1   --> A_1  D_1  S_1  
     e(  7 -  8) =     10.55750  eV     2   --> B_1  D_3  S_3  
     e(  7 -  8) =     10.55750  eV     2   --> B_2  D_4  S_4  

 **************************************************************************

 **************************************************************************

                    xk=(  -0.36667,   0.00000,   0.00000  )

     Band symmetry, C_2v (mm2)  point group:

     e(  1 -  1) =     -5.17118  eV     1   --> A_1  D_1  S_1  
     e(  2 -  2) =      3.87908  eV     1   --> A_1  D_1  S_1  
     e(  3 -  4) =      4.86701  eV     2   --> B_1  D_3  S_3  
     e(  3 -  4) =      4.86701  eV     2   --> B_2  D_4  S_4  
     e(  5 -  5) =      7.79340  eV     1   --> A_1  D_1  S_1  
     e(  6 -  6) =     10.32368  eV     1   --> A_1  D_1  S_1  
     e(  7 -  8) =     10.82881  eV     2   --> B_1  D_3  S_3  
     e(  7 -  8) =     10.82881  eV     2   --> B_2  D_4  S_4  

 **************************************************************************

 **************************************************************************

                    xk=(  -0.40000,   0.00000,   0.00000  )

     Band symmetry, C_2v (mm2)  point group:

     e(  1 -  1) =     -5.06071  eV     1   --> A_1  D_1  S_1  
     e(  2 -  2) =      3.58486  eV     1   --> A_1  D_1  S_1  
     e(  3 -  4) =      4.72159  eV     2   --> B_1  D_3  S_3  
     e(  3 -  4) =      4.72159  eV     2   --> B_2  D_4  S_4  
     e(  5 -  5) =      7.67321  eV     1   --> A_1  D_1  S_1  
     e(  6 -  6) =     10.09866  eV     1   --> A_1  D_1  S_1  
     e(  7 -  8) =     11.10651  eV     2   --> B_1  D_3  S_3  
     e(  7 -  8) =     11.10651  eV     2   --> B_2  D_4  S_4  

 **************************************************************************

 **************************************************************************

                    xk=(  -0.43333,   0.00000,   0.00000  )

     Band symmetry, C_2v (mm2)  point group:

     e(  1 -  1) =     -4.94096  eV     1   --> A_1  D_1  S_1  
     e(  2 -  2) =      3.28833  eV     1   --> A_1  D_1  S_1  
     e(  3 -  4) =      4.58149  eV     2   --> B_1  D_3  S_3  
     e(  3 -  4) =      4.58149  eV     2   --> B_2  D_4  S_4  
     e(  5 -  5) =      7.55708  eV     1   --> A_1  D_1  S_1  
     e(  6 -  6) =      9.85250  eV     1   --> A_1  D_1  S_1  
     e(  7 -  8) =     11.38950  eV     2   --> B_1  D_3  S_3  
     e(  7 -  8) =     11.38950  eV     2   --> B_2  D_4  S_4  

 **************************************************************************

 **************************************************************************

                    xk=(  -0.46667,   0.00000,   0.00000  )

     Band symmetry, C_2v (mm2)  point group:

     e(  1 -  1) =     -4.81200  eV     1   --> A_1  D_1  S_1  
     e(  2 -  2) =      2.99023  eV     1   --> A_1  D_1  S_1  
     e(  3 -  4) =      4.44736  eV     2   --> B_1  D_3  S_3  
     e(  3 -  4) =      4.44736  eV     2   --> B_2  D_4  S_4  
     e(  5 -  5) =      7.44622  eV     1   --> A_1  D_1  S_1  
     e(  6 -  6) =      9.59856  eV     1   --> A_1  D_1  S_1  
     e(  7 -  8) =     11.67724  eV     2   --> B_1  D_3  S_3  
     e(  7 -  8) =     11.67724  eV     2   --> B_2  D_4  S_4  

 **************************************************************************

 **************************************************************************

                    xk=(  -0.50000,   0.00000,   0.00000  )

     Band symmetry, C_2v (mm2)  point group:

     e(  1 -  1) =     -4.67394  eV     1   --> A_1  D_1  S_1  
     e(  2 -  2) =      2.69112  eV     1   --> A_1  D_1  S_1  
     e(  3 -  4) =      4.31974  eV     2   --> B_1  D_3  S_3  
     e(  3 -  4) =      4.31974  eV     2   --> B_2  D_4  S_4  
     e(  5 -  5) =      7.34161  eV     1   --> A_1  D_1  S_1  
     e(  6 -  6) =      9.34487  eV     1   --> A_1  D_1  S_1  
     e(  7 -  8) =     11.96903  eV     2   --> B_1  D_3  S_3  
     e(  7 -  8) =     11.96903  eV     2   --> B_2  D_4  S_4  

 **************************************************************************

 **************************************************************************

                    xk=(  -0.53333,   0.00000,   0.00000  )

     Band symmetry, C_2v (mm2)  point group:

     e(  1 -  1) =     -4.52687  eV     1   --> A_1  D_1  S_1  
     e(  2 -  2) =      2.39151  eV     1   --> A_1  D_1  S_1  
     e(  3 -  4) =      4.19905  eV     2   --> B_1  D_3  S_3  
     e(  3 -  4) =      4.19905  eV     2   --> B_2  D_4  S_4  
     e(  5 -  5) =      7.24411  eV     1   --> A_1  D_1  S_1  
     e(  6 -  6) =      9.09640  eV     1   --> A_1  D_1  S_1  
     e(  7 -  8) =     12.26440  eV     2   --> B_1  D_3  S_3  
     e(  7 -  8) =     12.26440  eV     2   --> B_2  D_4  S_4  

 **************************************************************************

 **************************************************************************

                    xk=(  -0.56667,   0.00000,   0.00000  )

     Band symmetry, C_2v (mm2)  point group:

     e(  1 -  1) =     -4.37092  eV     1   --> A_1  D_1  S_1  
     e(  2 -  2) =      2.09189  eV     1   --> A_1  D_1  S_1  
     e(  3 -  4) =      4.08566  eV     2   --> B_1  D_3  S_3  
     e(  3 -  4) =      4.08566  eV     2   --> B_2  D_4  S_4  
     e(  5 -  5) =      7.15443  eV     1   --> A_1  D_1  S_1  
     e(  6 -  6) =      8.85646  eV     1   --> A_1  D_1  S_1  
     e(  7 -  8) =     12.56304  eV     2   --> B_1  D_3  S_3  
     e(  7 -  8) =     12.56304  eV     2   --> B_2  D_4  S_4  

 **************************************************************************

 **************************************************************************

                    xk=(  -0.60000,   0.00000,   0.00000  )

     Band symmetry, C_2v (mm2)  point group:

     e(  1 -  1) =     -4.20620  eV     1   --> A_1  D_1  S_1  
     e(  2 -  2) =      1.79264  eV     1   --> A_1  D_1  S_1  
     e(  3 -  4) =      3.97982  eV     2   --> B_1  D_3  S_3  
     e(  3 -  4) =      3.97982  eV     2   --> B_2  D_4  S_4  
     e(  5 -  5) =      7.07325  eV     1   --> A_1  D_1  S_1  
     e(  6 -  6) =      8.62690  eV     1   --> A_1  D_1  S_1  
     e(  7 -  8) =     12.86440  eV     2   --> B_1  D_3  S_3  
     e(  7 -  8) =     12.86440  eV     2   --> B_2  D_4  S_4  

 **************************************************************************

 **************************************************************************

                    xk=(  -0.63333,   0.00000,   0.00000  )

     Band symmetry, C_2v (mm2)  point group:

     e(  1 -  1) =     -4.03285  eV     1   --> A_1  D_1  S_1  
     e(  2 -  2) =      1.49426  eV     1   --> A_1  D_1  S_1  
     e(  3 -  4) =      3.88179  eV     2   --> B_1  D_3  S_3  
     e(  3 -  4) =      3.88179  eV     2   --> B_2  D_4  S_4  
     e(  5 -  5) =      7.00115  eV     1   --> A_1  D_1  S_1  
     e(  6 -  6) =      8.40926  eV     1   --> A_1  D_1  S_1  
     e(  7 -  8) =     13.16862  eV     2   --> B_1  D_3  S_3  
     e(  7 -  8) =     13.16862  eV     2   --> B_2  D_4  S_4  

 **************************************************************************

 **************************************************************************

                    xk=(  -0.66667,   0.00000,   0.00000  )

     Band symmetry, C_2v (mm2)  point group:

     e(  1 -  1) =     -3.85103  eV     1   --> A_1  D_1  S_1  
     e(  2 -  2) =      1.19714  eV     1   --> A_1  D_1  S_1  
     e(  3 -  4) =      3.79176  eV     2   --> B_1  D_3  S_3  
     e(  3 -  4) =      3.79176  eV     2   --> B_2  D_4  S_4  
     e(  5 -  5) =      6.93860  eV     1   --> A_1  D_1  S_1  
     e(  6 -  6) =      8.20449  eV     1   --> A_1  D_1  S_1  
     e(  7 -  8) =     13.47534  eV     2   --> B_1  D_3  S_3  
     e(  7 -  8) =     13.47534  eV     2   --> B_2  D_4  S_4  

 **************************************************************************

 **************************************************************************

                    xk=(  -0.70000,   0.00000,   0.00000  )

     Band symmetry, C_2v (mm2)  point group:

     e(  1 -  1) =     -3.66089  eV     1   --> A_1  D_1  S_1  
     e(  2 -  2) =      0.90171  eV     1   --> A_1  D_1  S_1  
     e(  3 -  4) =      3.70988  eV     2   --> B_1  D_3  S_3  
     e(  3 -  4) =      3.70988  eV     2   --> B_2  D_4  S_4  
     e(  5 -  5) =      6.88603  eV     1   --> A_1  D_1  S_1  
     e(  6 -  6) =      8.01318  eV     1   --> A_1  D_1  S_1  
     e(  7 -  8) =     13.78439  eV     2   --> B_1  D_3  S_3  
     e(  7 -  8) =     13.78439  eV     2   --> B_2  D_4  S_4  

 **************************************************************************

 **************************************************************************

                    xk=(  -0.73333,   0.00000,   0.00000  )

     Band symmetry, C_2v (mm2)  point group:

     e(  1 -  1) =     -3.46260  eV     1   --> A_1  D_1  S_1  
     e(  2 -  2) =      0.60842  eV     1   --> A_1  D_1  S_1  
     e(  3 -  4) =      3.63631  eV     2   --> B_1  D_3  S_3  
     e(  3 -  4) =      3.63631  eV     2   --> B_2  D_4  S_4  
     e(  5 -  5) =      6.84389  eV     1   --> A_1  D_1  S_1  
     e(  6 -  6) =      7.83579  eV     1   --> A_1  D_1  S_1  
     e(  7 -  8) =     14.09564  eV     2   --> B_1  D_3  S_3  
     e(  7 -  8) =     14.09564  eV     2   --> B_2  D_4  S_4  

 **************************************************************************

 **************************************************************************

                    xk=(  -0.76667,   0.00000,   0.00000  )

     Band symmetry, C_2v (mm2)  point group:

     e(  1 -  1) =     -3.25637  eV     1   --> A_1  D_1  S_1  
     e(  2 -  2) =      0.31770  eV     1   --> A_1  D_1  S_1  
     e(  3 -  4) =      3.57116  eV     2   --> B_1  D_3  S_3  
     e(  3 -  4) =      3.57116  eV     2   --> B_2  D_4  S_4  
     e(  5 -  5) =      6.81253  eV     1   --> A_1  D_1  S_1  
     e(  6 -  6) =      7.67243  eV     1   --> A_1  D_1  S_1  
     e(  7 -  8) =     14.40863  eV     2   --> B_1  D_3  S_3  
     e(  7 -  8) =     14.40863  eV     2   --> B_2  D_4  S_4  

 **************************************************************************

 **************************************************************************

                    xk=(  -0.80000,   0.00000,   0.00000  )

     Band symmetry, C_2v (mm2)  point group:

     e(  1 -  1) =     -3.04239  eV     1   --> A_1  D_1  S_1  
     e(  2 -  2) =      0.02998  eV     1   --> A_1  D_1  S_1  
     e(  3 -  4) =      3.51451  eV     2   --> B_1  D_3  S_3  
     e(  3 -  4) =      3.51451  eV     2   --> B_2  D_4  S_4  
     e(  5 -  5) =      6.79228  eV     1   --> A_1  D_1  S_1  
     e(  6 -  6) =      7.52327  eV     1   --> A_1  D_1  S_1  
     e(  7 -  8) =     14.72292  eV     2   --> B_1  D_3  S_3  
     e(  7 -  8) =     14.72292  eV     2   --> B_2  D_4  S_4  

 **************************************************************************

 **************************************************************************

                    xk=(  -0.83333,   0.00000,   0.00000  )

     Band symmetry, C_2v (mm2)  point group:

     e(  1 -  1) =     -2.82089  eV     1   --> A_1  D_1  S_1  
     e(  2 -  2) =     -0.25430  eV     1   --> A_1  D_1  S_1  
     e(  3 -  4) =      3.46646  eV     2   --> B_1  D_3  S_3  
     e(  3 -  4) =      3.46646  eV     2   --> B_2  D_4  S_4  
     e(  5 -  5) =      6.78350  eV     1   --> A_1  D_1  S_1  
     e(  6 -  6) =      7.38830  eV     1   --> A_1  D_1  S_1  
     e(  7 -  8) =     15.03768  eV     2   --> B_1  D_3  S_3  
     e(  7 -  8) =     15.03768  eV     2   --> B_2  D_4  S_4  

 **************************************************************************

 **************************************************************************

                    xk=(  -0.86667,   0.00000,   0.00000  )

     Band symmetry, C_2v (mm2)  point group:

     e(  1 -  1) =     -2.59211  eV     1   --> A_1  D_1  S_1  
     e(  2 -  2) =     -0.53472  eV     1   --> A_1  D_1  S_1  
     e(  3 -  4) =      3.42706  eV     2   --> B_1  D_3  S_3  
     e(  3 -  4) =      3.42706  eV     2   --> B_2  D_4  S_4  
     e(  5 -  5) =      6.78652  eV     1   --> A_1  D_1  S_1  
     e(  6 -  6) =      7.26747  eV     1   --> A_1  D_1  S_1  
     e(  7 -  8) =     15.35109  eV     2   --> B_1  D_3  S_3  
     e(  7 -  8) =     15.35109  eV     2   --> B_2  D_4  S_4  

 **************************************************************************

 **************************************************************************

                    xk=(  -0.90000,   0.00000,   0.00000  )

     Band symmetry, C_2v (mm2)  point group:

     e(  1 -  1) =     -2.35630  eV     1   --> A_1  D_1  S_1  
     e(  2 -  2) =     -0.81085  eV     1   --> A_1  D_1  S_1  
     e(  3 -  4) =      3.39637  eV     2   --> B_1  D_3  S_3  
     e(  3 -  4) =      3.39637  eV     2   --> B_2  D_4  S_4  
     e(  5 -  5) =      6.80158  eV     1   --> A_1  D_1  S_1  
     e(  6 -  6) =      7.16058  eV     1   --> A_1  D_1  S_1  
     e(  7 -  8) =     15.65930  eV     2   --> B_1  D_3  S_3  
     e(  7 -  8) =     15.65930  eV     2   --> B_2  D_4  S_4  

 **************************************************************************

 **************************************************************************

                    xk=(  -0.93333,   0.00000,   0.00000  )

     Band symmetry, C_2v (mm2)  point group:

     e(  1 -  1) =     -2.11376  eV     1   --> A_1  D_1  S_1  
     e(  2 -  2) =     -1.08230  eV     1   --> A_1  D_1  S_1  
     e(  3 -  4) =      3.37441  eV     2   --> B_1  D_3  S_3  
     e(  3 -  4) =      3.37441  eV     2   --> B_2  D_4  S_4  
     e(  5 -  5) =      6.82899  eV     1   --> A_1  D_1  S_1  
     e(  6 -  6) =      7.06751  eV     1   --> A_1  D_1  S_1  
     e(  7 -  8) =     15.95253  eV     2   --> B_1  D_3  S_3  
     e(  7 -  8) =     15.95253  eV     2   --> B_2  D_4  S_4  

 **************************************************************************

 **************************************************************************

                    xk=(  -0.96667,   0.00000,   0.00000  )

     Band symmetry, C_2v (mm2)  point group:

     e(  1 -  1) =     -1.86475  eV     1   --> A_1  D_1  S_1  
     e(  2 -  2) =     -1.34868  eV     1   --> A_1  D_1  S_1  
     e(  3 -  4) =      3.36123  eV     2   --> B_1  D_3  S_3  
     e(  3 -  4) =      3.36123  eV     2   --> B_2  D_4  S_4  
     e(  5 -  5) =      6.86904  eV     1   --> A_1  D_1  S_1  
     e(  6 -  6) =      6.98805  eV     1   --> A_1  D_1  S_1  
     e(  7 -  8) =     16.20115  eV     2   --> B_1  D_3  S_3  
     e(  7 -  8) =     16.20115  eV     2   --> B_2  D_4  S_4  

 **************************************************************************

 **************************************************************************

                    xk=(  -1.00000,   0.00000,   0.00000  )

     point group D_2d (-42m)
     there are  5 classes
     the character table:

       E     2S4   C2    2C2'  2s_d 
A_1    1.00  1.00  1.00  1.00  1.00
A_2    1.00  1.00  1.00 -1.00 -1.00
B_1    1.00 -1.00  1.00  1.00 -1.00
B_2    1.00 -1.00  1.00 -1.00  1.00
E      2.00  0.00 -2.00  0.00  0.00

     the symmetry operations in each class and the name of the first element:

     E        1
                                                                 
     2S4      7    8
                                                                 
     C2       4
                                                                 
     2C2'     2    3
                                                                 
     2s_d     5    6
                                                                 

     Band symmetry, D_2d (-42m) point group:

     e(  1 -  1) =     -1.60980  eV     1   --> A_1  X_1  W_1  
     e(  2 -  2) =     -1.60943  eV     1   --> B_2  X_3  W_2  
     e(  3 -  4) =      3.35684  eV     2   --> E    X_5  W_3  
     e(  5 -  5) =      6.92188  eV     1   --> B_2  X_3  W_2  
     e(  6 -  6) =      6.92206  eV     1   --> A_1  X_1  W_1  
     e(  7 -  8) =     16.31488  eV     2   --> E    X_5  W_3  

 **************************************************************************

 **************************************************************************

                    xk=(  -1.00000,   0.01667,   0.00000  )

     point group C_2  (2)   
     there are  2 classes
     the character table:

       E     C2   
A      1.00  1.00
B      1.00 -1.00

     the symmetry operations in each class and the name of the first element:

     E        1
                                                                 
     C2       2
                                                                 

     Band symmetry, C_2  (2)    point group:

     e(  1 -  1) =     -1.60939  eV     1   --> A              
     e(  2 -  2) =     -1.60902  eV     1   --> B              
     e(  3 -  4) =      3.35310  eV     2   --> A              
     e(  3 -  4) =      3.35310  eV     2   --> B              
     e(  5 -  5) =      6.92867  eV     1   --> B              
     e(  6 -  6) =      6.92885  eV     1   --> A              
     e(  7 -  8) =     16.30406  eV     2   --> A              
     e(  7 -  8) =     16.30406  eV     2   --> B              

 **************************************************************************

 **************************************************************************

                    xk=(  -1.00000,   0.03333,   0.00000  )

     Band symmetry, C_2  (2)    point group:

     e(  1 -  1) =     -1.60817  eV     1   --> A              
     e(  2 -  2) =     -1.60780  eV     1   --> B              
     e(  3 -  4) =      3.34200  eV     2   --> A              
     e(  3 -  4) =      3.34200  eV     2   --> B              
     e(  5 -  5) =      6.94895  eV     1   --> B              
     e(  6 -  6) =      6.94913  eV     1   --> A              
     e(  7 -  8) =     16.27050  eV     2   --> A              
     e(  7 -  8) =     16.27050  eV     2   --> B              

 **************************************************************************

 **************************************************************************

                    xk=(  -1.00000,   0.05000,   0.00000  )

     Band symmetry, C_2  (2)    point group:

     e(  1 -  1) =     -1.60614  eV     1   --> A              
     e(  2 -  2) =     -1.60577  eV     1   --> B              
     e(  3 -  4) =      3.32383  eV     2   --> A              
     e(  3 -  4) =      3.32383  eV     2   --> B              
     e(  5 -  5) =      6.98240  eV     1   --> B              
     e(  6 -  6) =      6.98258  eV     1   --> A              
     e(  7 -  8) =     16.21129  eV     2   --> A              
     e(  7 -  8) =     16.21129  eV     2   --> B              

 **************************************************************************

 **************************************************************************

                    xk=(  -1.00000,   0.06667,   0.00000  )

     Band symmetry, C_2  (2)    point group:

     e(  1 -  1) =     -1.60333  eV     1   --> A              
     e(  2 -  2) =     -1.60296  eV     1   --> B              
     e(  3 -  4) =      3.29907  eV     2   --> A              
     e(  3 -  4) =      3.29907  eV     2   --> B              
     e(  5 -  5) =      7.02860  eV     1   --> B              
     e(  6 -  6) =      7.02878  eV     1   --> A              
     e(  7 -  7) =     16.12358  eV     1   --> B              
     e(  8 -  8) =     16.12370  eV     1   --> A              

 **************************************************************************

 **************************************************************************

                    xk=(  -1.00000,   0.08333,   0.00000  )

     Band symmetry, C_2  (2)    point group:

     e(  1 -  1) =     -1.59975  eV     1   --> A              
     e(  2 -  2) =     -1.59938  eV     1   --> B              
     e(  3 -  4) =      3.26832  eV     2   --> A              
     e(  3 -  4) =      3.26832  eV     2   --> B              
     e(  5 -  5) =      7.08695  eV     1   --> B              
     e(  6 -  6) =      7.08712  eV     1   --> A              
     e(  7 -  7) =     16.00669  eV     1   --> B              
     e(  8 -  8) =     16.00685  eV     1   --> A              

 **************************************************************************

 **************************************************************************

                    xk=(  -1.00000,   0.10000,   0.00000  )

     Band symmetry, C_2  (2)    point group:

     e(  1 -  1) =     -1.59543  eV     1   --> A              
     e(  2 -  2) =     -1.59506  eV     1   --> B              
     e(  3 -  4) =      3.23228  eV     2   --> A              
     e(  3 -  4) =      3.23228  eV     2   --> B              
     e(  5 -  5) =      7.15675  eV     1   --> B              
     e(  6 -  6) =      7.15691  eV     1   --> A              
     e(  7 -  7) =     15.86332  eV     1   --> B              
     e(  8 -  8) =     15.86350  eV     1   --> A              

 **************************************************************************

 **************************************************************************

                    xk=(  -1.00000,   0.11667,   0.00000  )

     Band symmetry, C_2  (2)    point group:

     e(  1 -  1) =     -1.59042  eV     1   --> A              
     e(  2 -  2) =     -1.59005  eV     1   --> B              
     e(  3 -  4) =      3.19171  eV     2   --> A              
     e(  3 -  4) =      3.19171  eV     2   --> B              
     e(  5 -  5) =      7.23724  eV     1   --> B              
     e(  6 -  6) =      7.23741  eV     1   --> A              
     e(  7 -  7) =     15.69833  eV     1   --> B              
     e(  8 -  8) =     15.69853  eV     1   --> A              

 **************************************************************************

 **************************************************************************

                    xk=(  -1.00000,   0.13333,   0.00000  )

     Band symmetry, C_2  (2)    point group:

     e(  1 -  1) =     -1.58476  eV     1   --> A              
     e(  2 -  2) =     -1.58438  eV     1   --> B              
     e(  3 -  4) =      3.14740  eV     2   --> A              
     e(  3 -  4) =      3.14740  eV     2   --> B              
     e(  5 -  5) =      7.32772  eV     1   --> B              
     e(  6 -  6) =      7.32788  eV     1   --> A              
     e(  7 -  7) =     15.51705  eV     1   --> B              
     e(  8 -  8) =     15.51727  eV     1   --> A              

 **************************************************************************

 **************************************************************************

                    xk=(  -1.00000,   0.15000,   0.00000  )

     Band symmetry, C_2  (2)    point group:

     e(  1 -  1) =     -1.57849  eV     1   --> A              
     e(  2 -  2) =     -1.57811  eV     1   --> B              
     e(  3 -  4) =      3.10011  eV     2   --> A              
     e(  3 -  4) =      3.10011  eV     2   --> B              
     e(  5 -  5) =      7.42742  eV     1   --> B              
     e(  6 -  6) =      7.42758  eV     1   --> A              
     e(  7 -  7) =     15.32395  eV     1   --> B              
     e(  8 -  8) =     15.32417  eV     1   --> A              

 **************************************************************************

 **************************************************************************

                    xk=(  -1.00000,   0.16667,   0.00000  )

     Band symmetry, C_2  (2)    point group:

     e(  1 -  1) =     -1.57167  eV     1   --> A              
     e(  2 -  2) =     -1.57129  eV     1   --> B              
     e(  3 -  4) =      3.05060  eV     2   --> A              
     e(  3 -  4) =      3.05060  eV     2   --> B              
     e(  5 -  5) =      7.53562  eV     1   --> B              
     e(  6 -  6) =      7.53577  eV     1   --> A              
     e(  7 -  7) =     15.12245  eV     1   --> B              
     e(  8 -  8) =     15.12267  eV     1   --> A              

 **************************************************************************

 **************************************************************************

                    xk=(  -1.00000,   0.18333,   0.00000  )

     Band symmetry, C_2  (2)    point group:

     e(  1 -  1) =     -1.56437  eV     1   --> A              
     e(  2 -  2) =     -1.56399  eV     1   --> B              
     e(  3 -  4) =      2.99958  eV     2   --> A              
     e(  3 -  4) =      2.99958  eV     2   --> B              
     e(  5 -  5) =      7.65166  eV     1   --> B              
     e(  6 -  6) =      7.65180  eV     1   --> A              
     e(  7 -  7) =     14.91504  eV     1   --> B              
     e(  8 -  8) =     14.91526  eV     1   --> A              

 **************************************************************************

 **************************************************************************

                    xk=(  -1.00000,   0.20000,   0.00000  )

     Band symmetry, C_2  (2)    point group:

     e(  1 -  1) =     -1.55665  eV     1   --> A              
     e(  2 -  2) =     -1.55627  eV     1   --> B              
     e(  3 -  4) =      2.94769  eV     2   --> A              
     e(  3 -  4) =      2.94769  eV     2   --> B              
     e(  5 -  5) =      7.77490  eV     1   --> B              
     e(  6 -  6) =      7.77504  eV     1   --> A              
     e(  7 -  7) =     14.70356  eV     1   --> B              
     e(  8 -  8) =     14.70377  eV     1   --> A              

 **************************************************************************

 **************************************************************************

                    xk=(  -1.00000,   0.21667,   0.00000  )

     Band symmetry, C_2  (2)    point group:

     e(  1 -  1) =     -1.54859  eV     1   --> A              
     e(  2 -  2) =     -1.54821  eV     1   --> B              
     e(  3 -  4) =      2.89556  eV     2   --> A              
     e(  3 -  4) =      2.89556  eV     2   --> B              
     e(  5 -  5) =      7.90478  eV     1   --> B              
     e(  6 -  6) =      7.90492  eV     1   --> A              
     e(  7 -  7) =     14.48931  eV     1   --> B              
     e(  8 -  8) =     14.48952  eV     1   --> A              

 **************************************************************************

 **************************************************************************

                    xk=(  -1.00000,   0.23333,   0.00000  )

     Band symmetry, C_2  (2)    point group:

     e(  1 -  1) =     -1.54027  eV     1   --> A              
     e(  2 -  2) =     -1.53989  eV     1   --> B              
     e(  3 -  4) =      2.84373  eV     2   --> A              
     e(  3 -  4) =      2.84373  eV     2   --> B              
     e(  5 -  5) =      8.04078  eV     1   --> B              
     e(  6 -  6) =      8.04091  eV     1   --> A              
     e(  7 -  7) =     14.27329  eV     1   --> B              
     e(  8 -  8) =     14.27350  eV     1   --> A              

 **************************************************************************

 **************************************************************************

                    xk=(  -1.00000,   0.25000,   0.00000  )

     Band symmetry, C_2  (2)    point group:

     e(  1 -  1) =     -1.53178  eV     1   --> A              
     e(  2 -  2) =     -1.53139  eV     1   --> B              
     e(  3 -  4) =      2.79271  eV     2   --> A              
     e(  3 -  4) =      2.79271  eV     2   --> B              
     e(  5 -  5) =      8.18242  eV     1   --> B              
     e(  6 -  6) =      8.18255  eV     1   --> A              
     e(  7 -  7) =     14.05629  eV     1   --> B              
     e(  8 -  8) =     14.05650  eV     1   --> A              

 **************************************************************************

 **************************************************************************

                    xk=(  -1.00000,   0.26667,   0.00000  )

     Band symmetry, C_2  (2)    point group:

     e(  1 -  1) =     -1.52320  eV     1   --> A              
     e(  2 -  2) =     -1.52281  eV     1   --> B              
     e(  3 -  4) =      2.74297  eV     2   --> A              
     e(  3 -  4) =      2.74297  eV     2   --> B              
     e(  5 -  5) =      8.32924  eV     1   --> B              
     e(  6 -  6) =      8.32937  eV     1   --> A              
     e(  7 -  7) =     13.83884  eV     1   --> B              
     e(  8 -  8) =     13.83905  eV     1   --> A              

 **************************************************************************

 **************************************************************************

                    xk=(  -1.00000,   0.28333,   0.00000  )

     Band symmetry, C_2  (2)    point group:

     e(  1 -  1) =     -1.51462  eV     1   --> A              
     e(  2 -  2) =     -1.51423  eV     1   --> B              
     e(  3 -  4) =      2.69494  eV     2   --> A              
     e(  3 -  4) =      2.69494  eV     2   --> B              
     e(  5 -  5) =      8.48089  eV     1   --> B              
     e(  6 -  6) =      8.48100  eV     1   --> A              
     e(  7 -  7) =     13.62155  eV     1   --> B              
     e(  8 -  8) =     13.62176  eV     1   --> A              

 **************************************************************************

 **************************************************************************

                    xk=(  -1.00000,   0.30000,   0.00000  )

     Band symmetry, C_2  (2)    point group:

     e(  1 -  1) =     -1.50616  eV     1   --> A              
     e(  2 -  2) =     -1.50576  eV     1   --> B              
     e(  3 -  4) =      2.64898  eV     2   --> A              
     e(  3 -  4) =      2.64898  eV     2   --> B              
     e(  5 -  5) =      8.63693  eV     1   --> B              
     e(  6 -  6) =      8.63705  eV     1   --> A              
     e(  7 -  7) =     13.40476  eV     1   --> B              
     e(  8 -  8) =     13.40497  eV     1   --> A              

 **************************************************************************

 **************************************************************************

                    xk=(  -1.00000,   0.31667,   0.00000  )

     Band symmetry, C_2  (2)    point group:

     e(  1 -  1) =     -1.49789  eV     1   --> A              
     e(  2 -  2) =     -1.49749  eV     1   --> B              
     e(  3 -  4) =      2.60545  eV     2   --> A              
     e(  3 -  4) =      2.60545  eV     2   --> B              
     e(  5 -  5) =      8.79701  eV     1   --> B              
     e(  6 -  6) =      8.79712  eV     1   --> A              
     e(  7 -  7) =     13.18885  eV     1   --> B              
     e(  8 -  8) =     13.18906  eV     1   --> A              

 **************************************************************************

 **************************************************************************

                    xk=(  -1.00000,   0.33333,   0.00000  )

     Band symmetry, C_2  (2)    point group:

     e(  1 -  1) =     -1.48992  eV     1   --> A              
     e(  2 -  2) =     -1.48952  eV     1   --> B              
     e(  3 -  4) =      2.56467  eV     2   --> A              
     e(  3 -  4) =      2.56467  eV     2   --> B              
     e(  5 -  5) =      8.96080  eV     1   --> B              
     e(  6 -  6) =      8.96091  eV     1   --> A              
     e(  7 -  7) =     12.97426  eV     1   --> B              
     e(  8 -  8) =     12.97447  eV     1   --> A              

 **************************************************************************

 **************************************************************************

                    xk=(  -1.00000,   0.35000,   0.00000  )

     Band symmetry, C_2  (2)    point group:

     e(  1 -  1) =     -1.48235  eV     1   --> A              
     e(  2 -  2) =     -1.48195  eV     1   --> B              
     e(  3 -  4) =      2.52692  eV     2   --> A              
     e(  3 -  4) =      2.52692  eV     2   --> B              
     e(  5 -  6) =      9.12785  eV     2   --> A              
     e(  5 -  6) =      9.12785  eV     2   --> B              
     e(  7 -  7) =     12.76128  eV     1   --> B              
     e(  8 -  8) =     12.76149  eV     1   --> A              

 **************************************************************************

 **************************************************************************

                    xk=(  -1.00000,   0.36667,   0.00000  )

     Band symmetry, C_2  (2)    point group:

     e(  1 -  1) =     -1.47527  eV     1   --> A              
     e(  2 -  2) =     -1.47487  eV     1   --> B              
     e(  3 -  4) =      2.49245  eV     2   --> A              
     e(  3 -  4) =      2.49245  eV     2   --> B              
     e(  5 -  6) =      9.29777  eV     2   --> A              
     e(  5 -  6) =      9.29777  eV     2   --> B              
     e(  7 -  7) =     12.55036  eV     1   --> B              
     e(  8 -  8) =     12.55058  eV     1   --> A              

 **************************************************************************

 **************************************************************************

                    xk=(  -1.00000,   0.38333,   0.00000  )

     Band symmetry, C_2  (2)    point group:

     e(  1 -  1) =     -1.46878  eV     1   --> A              
     e(  2 -  2) =     -1.46838  eV     1   --> B              
     e(  3 -  4) =      2.46149  eV     2   --> A              
     e(  3 -  4) =      2.46149  eV     2   --> B              
     e(  5 -  6) =      9.47000  eV     2   --> A              
     e(  5 -  6) =      9.47000  eV     2   --> B              
     e(  7 -  7) =     12.34202  eV     1   --> B              
     e(  8 -  8) =     12.34224  eV     1   --> A              

 **************************************************************************

 **************************************************************************

                    xk=(  -1.00000,   0.40000,   0.00000  )

     Band symmetry, C_2  (2)    point group:

     e(  1 -  1) =     -1.46296  eV     1   --> A              
     e(  2 -  2) =     -1.46255  eV     1   --> B              
     e(  3 -  4) =      2.43424  eV     2   --> A              
     e(  3 -  4) =      2.43424  eV     2   --> B              
     e(  5 -  6) =      9.64379  eV     2   --> A              
     e(  5 -  6) =      9.64379  eV     2   --> B              
     e(  7 -  7) =     12.13696  eV     1   --> B              
     e(  8 -  8) =     12.13719  eV     1   --> A              

 **************************************************************************

 **************************************************************************

                    xk=(  -1.00000,   0.41667,   0.00000  )

     Band symmetry, C_2  (2)    point group:

     e(  1 -  1) =     -1.45789  eV     1   --> A              
     e(  2 -  2) =     -1.45748  eV     1   --> B              
     e(  3 -  3) =      2.41089  eV     1   --> B              
     e(  4 -  4) =      2.41100  eV     1   --> A              
     e(  5 -  6) =      9.81801  eV     2   --> A              
     e(  5 -  6) =      9.81801  eV     2   --> B              
     e(  7 -  7) =     11.93635  eV     1   --> B              
     e(  8 -  8) =     11.93659  eV     1   --> A              

 **************************************************************************

 **************************************************************************

                    xk=(  -1.00000,   0.43333,   0.00000  )

     Band symmetry, C_2  (2)    point group:

     e(  1 -  1) =     -1.45364  eV     1   --> A              
     e(  2 -  2) =     -1.45323  eV     1   --> B              
     e(  3 -  3) =      2.39158  eV     1   --> B              
     e(  4 -  4) =      2.39169  eV     1   --> A              
     e(  5 -  6) =      9.99074  eV     2   --> A              
     e(  5 -  6) =      9.99074  eV     2   --> B              
     e(  7 -  7) =     11.74204  eV     1   --> B              
     e(  8 -  8) =     11.74230  eV     1   --> A              

 **************************************************************************

 **************************************************************************

                    xk=(  -1.00000,   0.45000,   0.00000  )

     Band symmetry, C_2  (2)    point group:

     e(  1 -  1) =     -1.45027  eV     1   --> A              
     e(  2 -  2) =     -1.44986  eV     1   --> B              
     e(  3 -  3) =      2.37643  eV     1   --> B              
     e(  4 -  4) =      2.37654  eV     1   --> A              
     e(  5 -  6) =     10.15823  eV     2   --> A              
     e(  5 -  6) =     10.15823  eV     2   --> B              
     e(  7 -  7) =     11.55778  eV     1   --> B              
     e(  8 -  8) =     11.55807  eV     1   --> A              

 **************************************************************************

 **************************************************************************

                    xk=(  -1.00000,   0.46667,   0.00000  )

     Band symmetry, C_2  (2)    point group:

     e(  1 -  1) =     -1.44782  eV     1   --> A              
     e(  2 -  2) =     -1.44741  eV     1   --> B              
     e(  3 -  3) =      2.36555  eV     1   --> B              
     e(  4 -  4) =      2.36565  eV     1   --> A              
     e(  5 -  6) =     10.31227  eV     2   --> A              
     e(  5 -  6) =     10.31227  eV     2   --> B              
     e(  7 -  7) =     11.39174  eV     1   --> B              
     e(  8 -  8) =     11.39207  eV     1   --> A              

 **************************************************************************

 **************************************************************************

                    xk=(  -1.00000,   0.48333,   0.00000  )

     Band symmetry, C_2  (2)    point group:

     e(  1 -  1) =     -1.44634  eV     1   --> A              
     e(  2 -  2) =     -1.44593  eV     1   --> B              
     e(  3 -  3) =      2.35898  eV     1   --> B              
     e(  4 -  4) =      2.35909  eV     1   --> A              
     e(  5 -  6) =     10.43353  eV     2   --> A              
     e(  5 -  6) =     10.43353  eV     2   --> B              
     e(  7 -  7) =     11.26326  eV     1   --> B              
     e(  8 -  8) =     11.26363  eV     1   --> A              

 **************************************************************************

 **************************************************************************

                    xk=(  -1.00000,   0.50000,   0.00000  )

     point group S_4 (-4)   
     there are  4 classes
     the character table:

       E     S4^3  C2    S4   
A      1.00  1.00  1.00  1.00
B      1.00 -1.00  1.00 -1.00
E      1.00  0.00 -1.00  0.00
E*     1.00  0.00 -1.00  0.00
     imaginary part
A      0.00  0.00  0.00  0.00
B      0.00  0.00  0.00  0.00
E      0.00  1.00  0.00 -1.00
E*     0.00 -1.00  0.00  1.00

     the symmetry operations in each class and the name of the first element:

     E        1
                                                                 
     S4^3     3
                                                                 
     C2       2
                                                                 
     S4       4
                                                                 

     Band symmetry, S_4 (-4)    point group:

     e(  1 -  1) =     -1.44585  eV     1   --> A    W_1       
     e(  2 -  2) =     -1.44544  eV     1   --> E    W_4       
     e(  3 -  3) =      2.35679  eV     1   --> E*   W_2       
     e(  4 -  4) =      2.35690  eV     1   --> B    W_3       
     e(  5 -  5) =     10.48335  eV     1   --> B    W_3       
     e(  6 -  6) =     10.48346  eV     1   --> E*   W_2       
     e(  7 -  7) =     11.21096  eV     1   --> E    W_4       
     e(  8 -  8) =     11.21137  eV     1   --> A    W_1       

 **************************************************************************

 **************************************************************************

                    xk=(  -0.98333,   0.50000,   0.01667  )

     point group C_1 (1)    
     there are  1 classes
     the character table:

       E    
A      1.00

     the symmetry operations in each class and the name of the first element:

     E        1
                                                                 

     Band symmetry, C_1 (1)     point group:

     e(  1 -  1) =     -1.55455  eV     1   --> A              
     e(  2 -  2) =     -1.33810  eV     1   --> A              
     e(  3 -  3) =      2.27982  eV     1   --> A              
     e(  4 -  4) =      2.44257  eV     1   --> A              
     e(  5 -  5) =     10.39153  eV     1   --> A              
     e(  6 -  6) =     10.54545  eV     1   --> A              
     e(  7 -  7) =     11.14423  eV     1   --> A              
     e(  8 -  8) =     11.31804  eV     1   --> A              

 **************************************************************************

 **************************************************************************

                    xk=(  -0.96667,   0.50000,   0.03333  )

     Band symmetry, C_1 (1)     point group:

     e(  1 -  1) =     -1.66389  eV     1   --> A              
     e(  2 -  2) =     -1.23301  eV     1   --> A              
     e(  3 -  3) =      2.21273  eV     1   --> A              
     e(  4 -  4) =      2.53589  eV     1   --> A              
     e(  5 -  5) =     10.28836  eV     1   --> A              
     e(  6 -  6) =     10.55191  eV     1   --> A              
     e(  7 -  7) =     11.14276  eV     1   --> A              
     e(  8 -  8) =     11.44621  eV     1   --> A              

 **************************************************************************

 **************************************************************************

                    xk=(  -0.95000,   0.50000,   0.05000  )

     Band symmetry, C_1 (1)     point group:

     e(  1 -  1) =     -1.77287  eV     1   --> A              
     e(  2 -  2) =     -1.13158  eV     1   --> A              
     e(  3 -  3) =      2.15693  eV     1   --> A              
     e(  4 -  4) =      2.63578  eV     1   --> A              
     e(  5 -  5) =     10.18282  eV     1   --> A              
     e(  6 -  6) =     10.49948  eV     1   --> A              
     e(  7 -  7) =     11.21004  eV     1   --> A              
     e(  8 -  8) =     11.58687  eV     1   --> A              

 **************************************************************************

 **************************************************************************

                    xk=(  -0.93333,   0.50000,   0.06667  )

     Band symmetry, C_1 (1)     point group:

     e(  1 -  1) =     -1.88082  eV     1   --> A              
     e(  2 -  2) =     -1.03517  eV     1   --> A              
     e(  3 -  3) =      2.11388  eV     1   --> A              
     e(  4 -  4) =      2.74132  eV     1   --> A              
     e(  5 -  5) =     10.07902  eV     1   --> A              
     e(  6 -  6) =     10.41179  eV     1   --> A              
     e(  7 -  7) =     11.32238  eV     1   --> A              
     e(  8 -  8) =     11.73590  eV     1   --> A              

 **************************************************************************

 **************************************************************************

                    xk=(  -0.91667,   0.50000,   0.08333  )

     Band symmetry, C_1 (1)     point group:

     e(  1 -  1) =     -1.98716  eV     1   --> A              
[...]
     e(  6 -  7) =      9.55653  eV     2   --> E    L_3       
     e(  8 -  8) =     13.94236  eV     1   --> A_1  L_1       

 **************************************************************************

 **************************************************************************

                    xk=(  -0.46667,   0.46667,   0.46667  )

     Band symmetry, C_3v (3m)   point group:

     e(  1 -  1) =     -3.48562  eV     1   --> A_1  L_1       
     e(  2 -  2) =     -0.67253  eV     1   --> A_1  L_1       
     e(  3 -  4) =      5.01875  eV     2   --> E    L_3       
     e(  5 -  5) =      7.75196  eV     1   --> A_1  L_1       
     e(  6 -  7) =      9.56345  eV     2   --> E    L_3       
     e(  8 -  8) =     13.95299  eV     1   --> A_1  L_1       

 **************************************************************************

 **************************************************************************

                    xk=(  -0.45000,   0.45000,   0.45000  )

     Band symmetry, C_3v (3m)   point group:

     e(  1 -  1) =     -3.55779  eV     1   --> A_1  L_1       
     e(  2 -  2) =     -0.56604  eV     1   --> A_1  L_1       
     e(  3 -  4) =      5.02872  eV     2   --> E    L_3       
     e(  5 -  5) =      7.76342  eV     1   --> A_1  L_1       
     e(  6 -  7) =      9.57469  eV     2   --> E    L_3       
     e(  8 -  8) =     13.97024  eV     1   --> A_1  L_1       

 **************************************************************************

 **************************************************************************

                    xk=(  -0.43333,   0.43333,   0.43333  )

     Band symmetry, C_3v (3m)   point group:

     e(  1 -  1) =     -3.65040  eV     1   --> A_1  L_1       
     e(  2 -  2) =     -0.42545  eV     1   --> A_1  L_1       
     e(  3 -  4) =      5.04269  eV     2   --> E    L_3       
     e(  5 -  5) =      7.77942  eV     1   --> A_1  L_1       
     e(  6 -  7) =      9.58991  eV     2   --> E    L_3       
     e(  8 -  8) =     13.99336  eV     1   --> A_1  L_1       

 **************************************************************************

 **************************************************************************

                    xk=(  -0.41667,   0.41667,   0.41667  )

     Band symmetry, C_3v (3m)   point group:

     e(  1 -  1) =     -3.75787  eV     1   --> A_1  L_1       
     e(  2 -  2) =     -0.25636  eV     1   --> A_1  L_1       
     e(  3 -  4) =      5.06062  eV     2   --> E    L_3       
     e(  5 -  5) =      7.79997  eV     1   --> A_1  L_1       
     e(  6 -  7) =      9.60857  eV     2   --> E    L_3       
     e(  8 -  8) =     14.02108  eV     1   --> A_1  L_1       

 **************************************************************************

 **************************************************************************

                    xk=(  -0.40000,   0.40000,   0.40000  )

     Band symmetry, C_3v (3m)   point group:

     e(  1 -  1) =     -3.87534  eV     1   --> A_1  L_1       
     e(  2 -  2) =     -0.06373  eV     1   --> A_1  L_1       
     e(  3 -  4) =      5.08252  eV     2   --> E    L_3       
     e(  5 -  5) =      7.82501  eV     1   --> A_1  L_1       
     e(  6 -  7) =      9.62995  eV     2   --> E    L_3       
     e(  8 -  8) =     14.05127  eV     1   --> A_1  L_1       

 **************************************************************************

 **************************************************************************

                    xk=(  -0.38333,   0.38333,   0.38333  )

     Band symmetry, C_3v (3m)   point group:

     e(  1 -  1) =     -3.99888  eV     1   --> A_1  L_1       
     e(  2 -  2) =      0.14844  eV     1   --> A_1  L_1       
     e(  3 -  4) =      5.10836  eV     2   --> E    L_3       
     e(  5 -  5) =      7.85444  eV     1   --> A_1  L_1       
     e(  6 -  7) =      9.65312  eV     2   --> E    L_3       
     e(  8 -  8) =     14.08039  eV     1   --> A_1  L_1       

 **************************************************************************

 **************************************************************************

                    xk=(  -0.36667,   0.36667,   0.36667  )

     Band symmetry, C_3v (3m)   point group:

     e(  1 -  1) =     -4.12544  eV     1   --> A_1  L_1       
     e(  2 -  2) =      0.37699  eV     1   --> A_1  L_1       
     e(  3 -  4) =      5.13811  eV     2   --> E    L_3       
     e(  5 -  5) =      7.88821  eV     1   --> A_1  L_1       
     e(  6 -  7) =      9.67692  eV     2   --> E    L_3       
     e(  8 -  8) =     14.10230  eV     1   --> A_1  L_1       

 **************************************************************************

 **************************************************************************

                    xk=(  -0.35000,   0.35000,   0.35000  )

     Band symmetry, C_3v (3m)   point group:

     e(  1 -  1) =     -4.25268  eV     1   --> A_1  L_1       
     e(  2 -  2) =      0.61947  eV     1   --> A_1  L_1       
     e(  3 -  4) =      5.17173  eV     2   --> E    L_3       
     e(  5 -  5) =      7.92624  eV     1   --> A_1  L_1       
     e(  6 -  7) =      9.69997  eV     2   --> E    L_3       
     e(  8 -  8) =     14.10635  eV     1   --> A_1  L_1       

 **************************************************************************

 **************************************************************************

                    xk=(  -0.33333,   0.33333,   0.33333  )

     Band symmetry, C_3v (3m)   point group:

     e(  1 -  1) =     -4.37887  eV     1   --> A_1  L_1       
     e(  2 -  2) =      0.87395  eV     1   --> A_1  L_1       
     e(  3 -  4) =      5.20917  eV     2   --> E    L_3       
     e(  5 -  5) =      7.96838  eV     1   --> A_1  L_1       
     e(  6 -  7) =      9.72065  eV     2   --> E    L_3       
     e(  8 -  8) =     14.07552  eV     1   --> A_1  L_1       

 **************************************************************************

 **************************************************************************

                    xk=(  -0.31667,   0.31667,   0.31667  )

     Band symmetry, C_3v (3m)   point group:

     e(  1 -  1) =     -4.50265  eV     1   --> A_1  L_1       
     e(  2 -  2) =      1.13894  eV     1   --> A_1  L_1       
     e(  3 -  4) =      5.25034  eV     2   --> E    L_3       
     e(  5 -  5) =      8.01449  eV     1   --> A_1  L_1       
     e(  6 -  7) =      9.73706  eV     2   --> E    L_3       
     e(  8 -  8) =     13.98931  eV     1   -->   ?

 **************************************************************************

 **************************************************************************

                    xk=(  -0.30000,   0.30000,   0.30000  )

     Band symmetry, C_3v (3m)   point group:

     e(  1 -  1) =     -4.62300  eV     1   --> A_1  L_1       
     e(  2 -  2) =      1.41317  eV     1   --> A_1  L_1       
     e(  3 -  4) =      5.29517  eV     2   --> E    L_3       
     e(  5 -  5) =      8.06442  eV     1   --> A_1  L_1       
     e(  6 -  7) =      9.74712  eV     2   --> E    L_3       
     e(  8 -  8) =     13.81520  eV     1   -->   ?

 **************************************************************************

 **************************************************************************

                    xk=(  -0.28333,   0.28333,   0.28333  )

     Band symmetry, C_3v (3m)   point group:

     e(  1 -  1) =     -4.73913  eV     1   --> A_1  L_1       
     e(  2 -  2) =      1.69562  eV     1   --> A_1  L_1       
     e(  3 -  4) =      5.34351  eV     2   --> E    L_3       
     e(  5 -  5) =      8.11792  eV     1   --> A_1  L_1       
     e(  6 -  7) =      9.74873  eV     2   --> E    L_3       
     e(  8 -  8) =     13.62978  eV     1   --> A_1  L_1       

 **************************************************************************

 **************************************************************************

                    xk=(  -0.26667,   0.26667,   0.26667  )

     Band symmetry, C_3v (3m)   point group:

     e(  1 -  1) =     -4.85043  eV     1   --> A_1  L_1       
     e(  2 -  2) =      1.98536  eV     1   --> A_1  L_1       
     e(  3 -  4) =      5.39521  eV     2   --> E    L_3       
     e(  5 -  5) =      8.17469  eV     1   --> A_1  L_1       
     e(  6 -  7) =      9.73986  eV     2   --> E    L_3       
     e(  8 -  8) =     13.38442  eV     1   --> A_1  L_1       

 **************************************************************************

 **************************************************************************

                    xk=(  -0.25000,   0.25000,   0.25000  )

     Band symmetry, C_3v (3m)   point group:

     e(  1 -  1) =     -4.95642  eV     1   --> A_1  L_1       
     e(  2 -  2) =      2.28152  eV     1   --> A_1  L_1       
     e(  3 -  4) =      5.45005  eV     2   --> E    L_3       
     e(  5 -  5) =      8.23439  eV     1   --> A_1  L_1       
     e(  6 -  7) =      9.71883  eV     2   --> E    L_3       
     e(  8 -  8) =     13.11624  eV     1   --> A_1  L_1       

 **************************************************************************

 **************************************************************************

                    xk=(  -0.23333,   0.23333,   0.23333  )

     Band symmetry, C_3v (3m)   point group:

     e(  1 -  1) =     -5.05669  eV     1   --> A_1  L_1       
     e(  2 -  2) =      2.58330  eV     1   --> A_1  L_1       
     e(  3 -  4) =      5.50778  eV     2   --> E    L_3       
     e(  5 -  5) =      8.29660  eV     1   --> A_1  L_1       
     e(  6 -  7) =      9.68457  eV     2   --> E    L_3       
     e(  8 -  8) =     12.83437  eV     1   --> A_1  L_1       

 **************************************************************************

 **************************************************************************

                    xk=(  -0.21667,   0.21667,   0.21667  )

     Band symmetry, C_3v (3m)   point group:

     e(  1 -  1) =     -5.15095  eV     1   --> A_1  L_1       
     e(  2 -  2) =      2.88981  eV     1   --> A_1  L_1       
     e(  3 -  4) =      5.56805  eV     2   --> E    L_3       
     e(  5 -  5) =      8.36075  eV     1   --> A_1  L_1       
     e(  6 -  7) =      9.63675  eV     2   --> E    L_3       
     e(  8 -  8) =     12.54398  eV     1   --> A_1  L_1       

 **************************************************************************

 **************************************************************************

                    xk=(  -0.20000,   0.20000,   0.20000  )

     Band symmetry, C_3v (3m)   point group:

     e(  1 -  1) =     -5.23894  eV     1   --> A_1  L_1       
     e(  2 -  2) =      3.20016  eV     1   --> A_1  L_1       
     e(  3 -  4) =      5.63047  eV     2   --> E    L_3       
     e(  5 -  5) =      8.42618  eV     1   --> A_1  L_1       
     e(  6 -  7) =      9.57610  eV     2   --> E    L_3       
     e(  8 -  8) =     12.24828  eV     1   --> A_1  L_1       

 **************************************************************************

 **************************************************************************

                    xk=(  -0.18333,   0.18333,   0.18333  )

     Band symmetry, C_3v (3m)   point group:

     e(  1 -  1) =     -5.32044  eV     1   --> A_1  L_1       
     e(  2 -  2) =      3.51329  eV     1   --> A_1  L_1       
     e(  3 -  4) =      5.69453  eV     2   --> E    L_3       
     e(  5 -  5) =      8.49209  eV     1   --> A_1  L_1       
     e(  6 -  7) =      9.50414  eV     2   --> E    L_3       
     e(  8 -  8) =     11.94944  eV     1   --> A_1  L_1       

 **************************************************************************

 **************************************************************************

                    xk=(  -0.16667,   0.16667,   0.16667  )

     Band symmetry, C_3v (3m)   point group:

     e(  1 -  1) =     -5.39530  eV     1   --> A_1  L_1       
     e(  2 -  2) =      3.82798  eV     1   --> A_1  L_1       
     e(  3 -  4) =      5.75958  eV     2   --> E    L_3       
     e(  5 -  5) =      8.55751  eV     1   --> A_1  L_1       
     e(  6 -  7) =      9.42314  eV     2   --> E    L_3       
     e(  8 -  8) =     11.64928  eV     1   --> A_1  L_1       

 **************************************************************************

 **************************************************************************

                    xk=(  -0.15000,   0.15000,   0.15000  )

     Band symmetry, C_3v (3m)   point group:

     e(  1 -  1) =     -5.46337  eV     1   --> A_1  L_1       
     e(  2 -  2) =      4.14267  eV     1   --> A_1  L_1       
     e(  3 -  4) =      5.82484  eV     2   --> E    L_3       
     e(  5 -  5) =      8.62105  eV     1   --> A_1  L_1       
     e(  6 -  7) =      9.33588  eV     2   --> E    L_3       
     e(  8 -  8) =     11.34963  eV     1   --> A_1  L_1       

 **************************************************************************

 **************************************************************************

                    xk=(  -0.13333,   0.13333,   0.13333  )

     Band symmetry, C_3v (3m)   point group:

     e(  1 -  1) =     -5.52454  eV     1   --> A_1  L_1       
     e(  2 -  2) =      4.45543  eV     1   --> A_1  L_1       
     e(  3 -  4) =      5.88939  eV     2   --> E    L_3       
     e(  5 -  5) =      8.68117  eV     1   --> A_1  L_1       
     e(  6 -  7) =      9.24544  eV     2   --> E    L_3       
     e(  8 -  8) =     11.05298  eV     1   --> A_1  L_1       

 **************************************************************************

 **************************************************************************

                    xk=(  -0.11667,   0.11667,   0.11667  )

     Band symmetry, C_3v (3m)   point group:

     e(  1 -  1) =     -5.57870  eV     1   --> A_1  L_1       
     e(  2 -  2) =      4.76365  eV     1   --> A_1  L_1       
     e(  3 -  4) =      5.95208  eV     2   --> E    L_3       
     e(  5 -  5) =      8.73580  eV     1   --> A_1  L_1       
     e(  6 -  7) =      9.15502  eV     2   --> E    L_3       
     e(  8 -  8) =     10.76262  eV     1   --> A_1  L_1       

 **************************************************************************

 **************************************************************************

                    xk=(  -0.10000,   0.10000,   0.10000  )

     Band symmetry, C_3v (3m)   point group:

     e(  1 -  1) =     -5.62579  eV     1   --> A_1  L_1       
     e(  2 -  2) =      5.06373  eV     1   --> A_1  L_1       
     e(  3 -  4) =      6.01157  eV     2   --> E    L_3       
     e(  5 -  5) =      8.78224  eV     1   --> A_1  L_1       
     e(  6 -  7) =      9.06783  eV     2   --> E    L_3       
     e(  8 -  8) =     10.48335  eV     1   --> A_1  L_1       

 **************************************************************************

 **************************************************************************

                    xk=(  -0.08333,   0.08333,   0.08333  )

     Band symmetry, C_3v (3m)   point group:

     e(  1 -  1) =     -5.66573  eV     1   --> A_1  L_1       
     e(  2 -  2) =      5.35057  eV     1   --> A_1  L_1       
     e(  3 -  4) =      6.06634  eV     2   --> E    L_3       
     e(  5 -  5) =      8.81694  eV     1   --> A_1  L_1       
     e(  6 -  7) =      8.98703  eV     2   --> E    L_3       
     e(  8 -  8) =     10.22228  eV     1   --> A_1  L_1       

 **************************************************************************

 **************************************************************************

                    xk=(  -0.06667,   0.06667,   0.06667  )

     Band symmetry, C_3v (3m)   point group:

     e(  1 -  1) =     -5.69847  eV     1   --> A_1  L_1       
     e(  2 -  2) =      5.61686  eV     1   --> A_1  L_1       
     e(  3 -  4) =      6.11467  eV     2   --> E    L_3       
     e(  5 -  5) =      8.83556  eV     1   --> A_1  L_1       
     e(  6 -  7) =      8.91567  eV     2   --> E    L_3       
     e(  8 -  8) =      9.98958  eV     1   --> A_1  L_1       

 **************************************************************************

 **************************************************************************

                    xk=(  -0.05000,   0.05000,   0.05000  )

     Band symmetry, C_3v (3m)   point group:

     e(  1 -  1) =     -5.72398  eV     1   --> A_1  L_1       
     e(  2 -  2) =      5.85193  eV     1   --> A_1  L_1       
     e(  3 -  4) =      6.15478  eV     2   --> E    L_3       
     e(  5 -  5) =      8.83420  eV     1   --> A_1  L_1       
     e(  6 -  7) =      8.85660  eV     2   --> E    L_3       
     e(  8 -  8) =      9.79831  eV     1   --> A_1  L_1       

 **************************************************************************

 **************************************************************************

                    xk=(  -0.03333,   0.03333,   0.03333  )

     Band symmetry, C_3v (3m)   point group:

     e(  1 -  1) =     -5.74222  eV     1   --> A_1  L_1       
     e(  2 -  2) =      6.04103  eV     1   --> A_1  L_1       
     e(  3 -  4) =      6.18495  eV     2   --> E    L_3       
     e(  5 -  6) =      8.81233  eV     2   --> E    L_3       
     e(  7 -  7) =      8.81407  eV     1   --> A_1  L_1       
     e(  8 -  8) =      9.66071  eV     1   --> A_1  L_1       

 **************************************************************************

 **************************************************************************

                    xk=(  -0.01667,   0.01667,   0.01667  )

     Band symmetry, C_3v (3m)   point group:

     e(  1 -  1) =     -5.75318  eV     1   --> A_1  L_1       
     e(  2 -  2) =      6.16603  eV     1   --> A_1  L_1       
     e(  3 -  4) =      6.20372  eV     2   --> E    L_3       
     e(  5 -  6) =      8.78488  eV     2   --> E    L_3       
     e(  7 -  7) =      8.78778  eV     1   --> A_1  L_1       
     e(  8 -  8) =      9.58126  eV     1   --> A_1  L_1       

 **************************************************************************

 **************************************************************************

                    xk=(   0.00000,   0.00000,   0.00000  )

     point group T_d (-43m) 
     there are  5 classes
     the character table:

       E     8C3   3C2   6S4   6s_d 
A_1    1.00  1.00  1.00  1.00  1.00
A_2    1.00  1.00  1.00 -1.00 -1.00
E      2.00 -1.00  2.00  0.00  0.00
T_1    3.00  0.00 -1.00  1.00 -1.00
T_2    3.00  0.00 -1.00 -1.00  1.00

     the symmetry operations in each class and the name of the first element:

     E        1
                                                                 
     8C3      5    7    8    6   12    9   10   11
                                                                 
     3C2      2    3    4
                                                                 
     6S4     15   16   20   19   23   24
                                                                 
     6s_d    13   14   17   18   21   22
                                                                 

     Band symmetry, T_d (-43m)  point group:

     e(  1 -  1) =     -5.75683  eV     1   --> A_1  G_1  P_1  
     e(  2 -  4) =      6.21009  eV     3   --> T_2  G_15 P_4  
     e(  5 -  7) =      8.77558  eV     3   --> T_2  G_15 P_4  
     e(  8 -  8) =      9.55590  eV     1   --> A_1  G_1  P_1  

 **************************************************************************
 
     BANDS        :     4.53s CPU         4.70s WALL

 
   This run was terminated on:  10:52:40   9Sep2018            

=------------------------------------------------------------------------------=
   JOB DONE.
=------------------------------------------------------------------------------=
