
     Program PWSCF v.6.1 (svn rev. 13369) starts on  9Sep2018 at 10:52:11 

     This program is part of the open-source Quantum ESPRESSO suite
     for quantum simulation of materials; please cite
         "P. Giannozzi et al., J. Phys.:Condens. Matter 21 395502 (2009);
          URL http://www.quantum-espresso.org", 
     in publications or presentations arising from this work. More details at
     http://www.quantum-espresso.org/quote

     Parallel version (MPI), running on     1 processors
     Waiting for input...
     Reading input from standard input

     Current dimensions of program PWSCF are:
     Max number of different atomic species (ntypx) = 10
     Max number of k-points (npk) =  40000
     Max angular momentum in pseudopotentials (lmaxx) =  3

     Atomic positions and unit cell read from directory:
     ./SCF.save/
 
               file Si.pbe-n-kjpaw_psl.0.1.UPF: wavefunction(s)  3S renormalized

     Subspace diagonalization in iterative solution of the eigenvalue problem:
     a serial algorithm will be used

 
     G-vector sticks info
     --------------------
     sticks:   dense  smooth     PW     G-vecs:    dense   smooth      PW
     Sum         511     511    163                 7631     7631    1363
 


     bravais-lattice index     =            2
     lattice parameter (alat)  =      10.2623  a.u.
     unit-cell volume          =     270.1967 (a.u.)^3
     number of atoms/cell      =            2
     number of atomic types    =            1
     number of electrons       =         8.00
     number of Kohn-Sham states=            8
     kinetic-energy cutoff     =      35.0000  Ry
     charge density cutoff     =     140.0000  Ry
     Exchange-correlation      =  SLA  PW   PBX  PBC ( 1  4  3  4 0 0)

     celldm(1)=  10.262347  celldm(2)=   0.000000  celldm(3)=   0.000000
     celldm(4)=   0.000000  celldm(5)=   0.000000  celldm(6)=   0.000000

     crystal axes: (cart. coord. in units of alat)
               a(1) = (  -0.500000   0.000000   0.500000 )  
               a(2) = (   0.000000   0.500000   0.500000 )  
               a(3) = (  -0.500000   0.500000   0.000000 )  

     reciprocal axes: (cart. coord. in units 2 pi/alat)
               b(1) = ( -1.000000 -1.000000  1.000000 )  
               b(2) = (  1.000000  1.000000  1.000000 )  
               b(3) = ( -1.000000  1.000000 -1.000000 )  


     PseudoPot. # 1 for Si read from file:
     /opt/home/guest1/upf_files/Si.pbe-n-kjpaw_psl.0.1.UPF
     MD5 check sum: b9d333a40e496bef61db012f150758bf
     Pseudo is Projector augmented-wave + core cor, Zval =  4.0
     Generated using "atomic" code by A. Dal Corso  v.5.0.2 svn rev. 9415
     Shape of augmentation charge: PSQ
     Using radial grid of 1141 points,  4 beta functions with: 
                l(1) =   0
                l(2) =   0
                l(3) =   1
                l(4) =   1
     Q(r) pseudized with 0 coefficients 


     atomic species   valence    mass     pseudopotential
        Si             4.00    28.08550     Si( 1.00)

     24 Sym. Ops. (no inversion) found
          (note: 24 additional sym.ops. were found but ignored
           their fractional translations are incommensurate with FFT grid)

                                    s                        frac. trans.

      isym =  1     identity                                     

 cryst.   s( 1) = (     1          0          0      )
                  (     0          1          0      )
                  (     0          0          1      )

 cart.    s( 1) = (  1.0000000  0.0000000  0.0000000 )
                  (  0.0000000  1.0000000  0.0000000 )
                  (  0.0000000  0.0000000  1.0000000 )


      isym =  2     180 deg rotation - cart. axis [0,0,1]        

 cryst.   s( 2) = (     0          1         -1      )
                  (     1          0         -1      )
                  (     0          0         -1      )

 cart.    s( 2) = ( -1.0000000  0.0000000  0.0000000 )
                  (  0.0000000 -1.0000000  0.0000000 )
                  (  0.0000000  0.0000000  1.0000000 )


      isym =  3     180 deg rotation - cart. axis [0,1,0]        

 cryst.   s( 3) = (    -1          0          0      )
                  (    -1          0          1      )
                  (    -1          1          0      )

 cart.    s( 3) = ( -1.0000000  0.0000000  0.0000000 )
                  (  0.0000000  1.0000000  0.0000000 )
                  (  0.0000000  0.0000000 -1.0000000 )


      isym =  4     180 deg rotation - cart. axis [1,0,0]        

 cryst.   s( 4) = (     0         -1          1      )
                  (     0         -1          0      )
                  (     1         -1          0      )

 cart.    s( 4) = (  1.0000000  0.0000000  0.0000000 )
                  (  0.0000000 -1.0000000  0.0000000 )
                  (  0.0000000  0.0000000 -1.0000000 )


      isym =  5     120 deg rotation - cart. axis [-1,-1,-1]     

 cryst.   s( 5) = (    -1          0          1      )
                  (    -1          1          0      )
                  (    -1          0          0      )

 cart.    s( 5) = (  0.0000000  1.0000000  0.0000000 )
                  (  0.0000000  0.0000000  1.0000000 )
                  (  1.0000000  0.0000000  0.0000000 )


      isym =  6     120 deg rotation - cart. axis [-1,1,1]       

 cryst.   s( 6) = (     0          1          0      )
                  (     0          0          1      )
                  (     1          0          0      )

 cart.    s( 6) = (  0.0000000 -1.0000000  0.0000000 )
                  (  0.0000000  0.0000000  1.0000000 )
                  ( -1.0000000  0.0000000  0.0000000 )


      isym =  7     120 deg rotation - cart. axis [1,1,-1]       

 cryst.   s( 7) = (     1          0         -1      )
                  (     0          0         -1      )
                  (     0          1         -1      )

 cart.    s( 7) = (  0.0000000  1.0000000  0.0000000 )
                  (  0.0000000  0.0000000 -1.0000000 )
                  ( -1.0000000  0.0000000  0.0000000 )


      isym =  8     120 deg rotation - cart. axis [1,-1,1]       

 cryst.   s( 8) = (     0         -1          0      )
                  (     1         -1          0      )
                  (     0         -1          1      )

 cart.    s( 8) = (  0.0000000 -1.0000000  0.0000000 )
                  (  0.0000000  0.0000000 -1.0000000 )
                  (  1.0000000  0.0000000  0.0000000 )


      isym =  9     120 deg rotation - cart. axis [1,1,1]        

 cryst.   s( 9) = (     0          0         -1      )
                  (     0          1         -1      )
                  (     1          0         -1      )

 cart.    s( 9) = (  0.0000000  0.0000000  1.0000000 )
                  (  1.0000000  0.0000000  0.0000000 )
                  (  0.0000000  1.0000000  0.0000000 )


      isym = 10     120 deg rotation - cart. axis [-1,1,-1]      

 cryst.   s(10) = (    -1          1          0      )
                  (    -1          0          0      )
                  (    -1          0          1      )

 cart.    s(10) = (  0.0000000  0.0000000  1.0000000 )
                  ( -1.0000000  0.0000000  0.0000000 )
                  (  0.0000000 -1.0000000  0.0000000 )


      isym = 11     120 deg rotation - cart. axis [1,-1,-1]      

 cryst.   s(11) = (     0          0          1      )
                  (     1          0          0      )
                  (     0          1          0      )

 cart.    s(11) = (  0.0000000  0.0000000 -1.0000000 )
                  ( -1.0000000  0.0000000  0.0000000 )
                  (  0.0000000  1.0000000  0.0000000 )


      isym = 12     120 deg rotation - cart. axis [-1,-1,1]      

 cryst.   s(12) = (     1         -1          0      )
                  (     0         -1          1      )
                  (     0         -1          0      )

 cart.    s(12) = (  0.0000000  0.0000000 -1.0000000 )
                  (  1.0000000  0.0000000  0.0000000 )
                  (  0.0000000 -1.0000000  0.0000000 )


      isym = 13     inv. 180 deg rotation - cart. axis [1,1,0]   

 cryst.   s(13) = (     0          1          0      )
                  (     1          0          0      )
                  (     0          0          1      )

 cart.    s(13) = (  0.0000000 -1.0000000  0.0000000 )
                  ( -1.0000000  0.0000000  0.0000000 )
                  (  0.0000000  0.0000000  1.0000000 )


      isym = 14     inv. 180 deg rotation - cart. axis [1,-1,0]  

 cryst.   s(14) = (     1          0         -1      )
                  (     0          1         -1      )
                  (     0          0         -1      )

 cart.    s(14) = (  0.0000000  1.0000000  0.0000000 )
                  (  1.0000000  0.0000000  0.0000000 )
                  (  0.0000000  0.0000000  1.0000000 )


      isym = 15     inv.  90 deg rotation - cart. axis [0,0,-1]  

 cryst.   s(15) = (     0         -1          0      )
                  (     0         -1          1      )
                  (     1         -1          0      )

 cart.    s(15) = (  0.0000000 -1.0000000  0.0000000 )
                  (  1.0000000  0.0000000  0.0000000 )
                  (  0.0000000  0.0000000 -1.0000000 )


      isym = 16     inv.  90 deg rotation - cart. axis [0,0,1]   

 cryst.   s(16) = (    -1          0          1      )
                  (    -1          0          0      )
                  (    -1          1          0      )

 cart.    s(16) = (  0.0000000  1.0000000  0.0000000 )
                  ( -1.0000000  0.0000000  0.0000000 )
                  (  0.0000000  0.0000000 -1.0000000 )


      isym = 17     inv. 180 deg rotation - cart. axis [1,0,1]   

 cryst.   s(17) = (     1          0          0      )
                  (     0          0          1      )
                  (     0          1          0      )

 cart.    s(17) = (  0.0000000  0.0000000 -1.0000000 )
                  (  0.0000000  1.0000000  0.0000000 )
                  ( -1.0000000  0.0000000  0.0000000 )


      isym = 18     inv. 180 deg rotation - cart. axis [-1,0,1]  

 cryst.   s(18) = (    -1          0          0      )
                  (    -1          1          0      )
                  (    -1          0          1      )

 cart.    s(18) = (  0.0000000  0.0000000  1.0000000 )
                  (  0.0000000  1.0000000  0.0000000 )
                  (  1.0000000  0.0000000  0.0000000 )


      isym = 19     inv.  90 deg rotation - cart. axis [0,1,0]   

 cryst.   s(19) = (     0         -1          1      )
                  (     1         -1          0      )
                  (     0         -1          0      )

 cart.    s(19) = (  0.0000000  0.0000000 -1.0000000 )
                  (  0.0000000 -1.0000000  0.0000000 )
                  (  1.0000000  0.0000000  0.0000000 )


      isym = 20     inv.  90 deg rotation - cart. axis [0,-1,0]  

 cryst.   s(20) = (     0          1         -1      )
                  (     0          0         -1      )
                  (     1          0         -1      )

 cart.    s(20) = (  0.0000000  0.0000000  1.0000000 )
                  (  0.0000000 -1.0000000  0.0000000 )
                  ( -1.0000000  0.0000000  0.0000000 )


      isym = 21     inv. 180 deg rotation - cart. axis [0,1,1]   

 cryst.   s(21) = (     1         -1          0      )
                  (     0         -1          0      )
                  (     0         -1          1      )

 cart.    s(21) = (  1.0000000  0.0000000  0.0000000 )
                  (  0.0000000  0.0000000 -1.0000000 )
                  (  0.0000000 -1.0000000  0.0000000 )


      isym = 22     inv. 180 deg rotation - cart. axis [0,1,-1]  

 cryst.   s(22) = (     0          0          1      )
                  (     0          1          0      )
                  (     1          0          0      )

 cart.    s(22) = (  1.0000000  0.0000000  0.0000000 )
                  (  0.0000000  0.0000000  1.0000000 )
                  (  0.0000000  1.0000000  0.0000000 )


      isym = 23     inv.  90 deg rotation - cart. axis [-1,0,0]  

 cryst.   s(23) = (     0          0         -1      )
                  (     1          0         -1      )
                  (     0          1         -1      )

 cart.    s(23) = ( -1.0000000  0.0000000  0.0000000 )
                  (  0.0000000  0.0000000 -1.0000000 )
                  (  0.0000000  1.0000000  0.0000000 )


      isym = 24     inv.  90 deg rotation - cart. axis [1,0,0]   

 cryst.   s(24) = (    -1          1          0      )
                  (    -1          0          1      )
                  (    -1          0          0      )

 cart.    s(24) = ( -1.0000000  0.0000000  0.0000000 )
                  (  0.0000000  0.0000000  1.0000000 )
                  (  0.0000000 -1.0000000  0.0000000 )


     point group T_d (-43m) 
     there are  5 classes
     the character table:

       E     8C3   3C2   6S4   6s_d 
A_1    1.00  1.00  1.00  1.00  1.00
A_2    1.00  1.00  1.00 -1.00 -1.00
E      2.00 -1.00  2.00  0.00  0.00
T_1    3.00  0.00 -1.00  1.00 -1.00
T_2    3.00  0.00 -1.00 -1.00  1.00

     the symmetry operations in each class and the name of the first element:

     E        1
          identity                                               
     8C3      5    7    8    6   12    9   10   11
          120 deg rotation - cart. axis [-1,-1,-1]               
     3C2      2    3    4
          180 deg rotation - cart. axis [0,0,1]                  
     6S4     15   16   20   19   23   24
          inv.  90 deg rotation - cart. axis [0,0,-1]            
     6s_d    13   14   17   18   21   22
          inv. 180 deg rotation - cart. axis [1,1,0]             

   Cartesian axes

     site n.     atom                  positions (alat units)
         1           Si  tau(   1) = (   0.0000000   0.0000000   0.0000000  )
         2           Si  tau(   2) = (  -0.2500000   0.2500000   0.2500000  )

   Crystallographic axes

     site n.     atom                  positions (cryst. coord.)
         1           Si  tau(   1) = (  0.0000000  0.0000000  0.0000000  )
         2           Si  tau(   2) = (  0.2500000  0.2500000  0.2500000  )

     number of k points=   151  Fermi-Dirac smearing, width (Ry)=  0.0036
                       cart. coord. in units 2pi/alat
        k(    1) = (  -1.0000000   0.5000000   0.0000000), wk =   0.0132450
        k(    2) = (  -0.9666667   0.4833333   0.0000000), wk =   0.0132450
        k(    3) = (  -0.9333333   0.4666667   0.0000000), wk =   0.0132450
        k(    4) = (  -0.9000000   0.4500000   0.0000000), wk =   0.0132450
        k(    5) = (  -0.8666667   0.4333333   0.0000000), wk =   0.0132450
        k(    6) = (  -0.8333333   0.4166667   0.0000000), wk =   0.0132450
        k(    7) = (  -0.8000000   0.4000000   0.0000000), wk =   0.0132450
        k(    8) = (  -0.7666667   0.3833333   0.0000000), wk =   0.0132450
        k(    9) = (  -0.7333333   0.3666667   0.0000000), wk =   0.0132450
        k(   10) = (  -0.7000000   0.3500000  -0.0000000), wk =   0.0132450
        k(   11) = (  -0.6666667   0.3333333   0.0000000), wk =   0.0132450
        k(   12) = (  -0.6333333   0.3166667  -0.0000000), wk =   0.0132450
        k(   13) = (  -0.6000000   0.3000000   0.0000000), wk =   0.0132450
        k(   14) = (  -0.5666667   0.2833333   0.0000000), wk =   0.0132450
        k(   15) = (  -0.5333333   0.2666667   0.0000000), wk =   0.0132450
        k(   16) = (  -0.5000000   0.2500000   0.0000000), wk =   0.0132450
        k(   17) = (  -0.4666667   0.2333333   0.0000000), wk =   0.0132450
        k(   18) = (  -0.4333333   0.2166667   0.0000000), wk =   0.0132450
        k(   19) = (  -0.4000000   0.2000000   0.0000000), wk =   0.0132450
        k(   20) = (  -0.3666667   0.1833333   0.0000000), wk =   0.0132450
        k(   21) = (  -0.3333333   0.1666667   0.0000000), wk =   0.0132450
        k(   22) = (  -0.3000000   0.1500000  -0.0000000), wk =   0.0132450
        k(   23) = (  -0.2666667   0.1333333  -0.0000000), wk =   0.0132450
        k(   24) = (  -0.2333333   0.1166667   0.0000000), wk =   0.0132450
        k(   25) = (  -0.2000000   0.1000000   0.0000000), wk =   0.0132450
        k(   26) = (  -0.1666667   0.0833333  -0.0000000), wk =   0.0132450
        k(   27) = (  -0.1333333   0.0666667   0.0000000), wk =   0.0132450
        k(   28) = (  -0.1000000   0.0500000   0.0000000), wk =   0.0132450
        k(   29) = (  -0.0666667   0.0333333  -0.0000000), wk =   0.0132450
        k(   30) = (  -0.0333333   0.0166667  -0.0000000), wk =   0.0132450
        k(   31) = (   0.0000000   0.0000000   0.0000000), wk =   0.0132450
        k(   32) = (  -0.0333333   0.0000000   0.0000000), wk =   0.0132450
        k(   33) = (  -0.0666667   0.0000000   0.0000000), wk =   0.0132450
        k(   34) = (  -0.1000000   0.0000000   0.0000000), wk =   0.0132450
        k(   35) = (  -0.1333333   0.0000000   0.0000000), wk =   0.0132450
        k(   36) = (  -0.1666667   0.0000000   0.0000000), wk =   0.0132450
        k(   37) = (  -0.2000000   0.0000000   0.0000000), wk =   0.0132450
        k(   38) = (  -0.2333333   0.0000000   0.0000000), wk =   0.0132450
        k(   39) = (  -0.2666667   0.0000000   0.0000000), wk =   0.0132450
        k(   40) = (  -0.3000000   0.0000000   0.0000000), wk =   0.0132450
        k(   41) = (  -0.3333333   0.0000000   0.0000000), wk =   0.0132450
        k(   42) = (  -0.3666667   0.0000000   0.0000000), wk =   0.0132450
        k(   43) = (  -0.4000000   0.0000000   0.0000000), wk =   0.0132450
        k(   44) = (  -0.4333333   0.0000000   0.0000000), wk =   0.0132450
        k(   45) = (  -0.4666667   0.0000000   0.0000000), wk =   0.0132450
        k(   46) = (  -0.5000000   0.0000000   0.0000000), wk =   0.0132450
        k(   47) = (  -0.5333333   0.0000000   0.0000000), wk =   0.0132450
        k(   48) = (  -0.5666667   0.0000000   0.0000000), wk =   0.0132450
        k(   49) = (  -0.6000000   0.0000000   0.0000000), wk =   0.0132450
        k(   50) = (  -0.6333333   0.0000000   0.0000000), wk =   0.0132450
        k(   51) = (  -0.6666667   0.0000000   0.0000000), wk =   0.0132450
        k(   52) = (  -0.7000000   0.0000000   0.0000000), wk =   0.0132450
        k(   53) = (  -0.7333333   0.0000000   0.0000000), wk =   0.0132450
        k(   54) = (  -0.7666667   0.0000000   0.0000000), wk =   0.0132450
        k(   55) = (  -0.8000000   0.0000000   0.0000000), wk =   0.0132450
        k(   56) = (  -0.8333333   0.0000000   0.0000000), wk =   0.0132450
        k(   57) = (  -0.8666667   0.0000000   0.0000000), wk =   0.0132450
        k(   58) = (  -0.9000000   0.0000000   0.0000000), wk =   0.0132450
        k(   59) = (  -0.9333333   0.0000000   0.0000000), wk =   0.0132450
        k(   60) = (  -0.9666667   0.0000000   0.0000000), wk =   0.0132450
        k(   61) = (  -1.0000000   0.0000000   0.0000000), wk =   0.0132450
        k(   62) = (  -1.0000000   0.0166667   0.0000000), wk =   0.0132450
        k(   63) = (  -1.0000000   0.0333333   0.0000000), wk =   0.0132450
        k(   64) = (  -1.0000000   0.0500000   0.0000000), wk =   0.0132450
        k(   65) = (  -1.0000000   0.0666667   0.0000000), wk =   0.0132450
        k(   66) = (  -1.0000000   0.0833333   0.0000000), wk =   0.0132450
        k(   67) = (  -1.0000000   0.1000000   0.0000000), wk =   0.0132450
        k(   68) = (  -1.0000000   0.1166667   0.0000000), wk =   0.0132450
        k(   69) = (  -1.0000000   0.1333333   0.0000000), wk =   0.0132450
        k(   70) = (  -1.0000000   0.1500000   0.0000000), wk =   0.0132450
        k(   71) = (  -1.0000000   0.1666667   0.0000000), wk =   0.0132450
        k(   72) = (  -1.0000000   0.1833333   0.0000000), wk =   0.0132450
        k(   73) = (  -1.0000000   0.2000000   0.0000000), wk =   0.0132450
        k(   74) = (  -1.0000000   0.2166667   0.0000000), wk =   0.0132450
        k(   75) = (  -1.0000000   0.2333333   0.0000000), wk =   0.0132450
        k(   76) = (  -1.0000000   0.2500000   0.0000000), wk =   0.0132450
        k(   77) = (  -1.0000000   0.2666667   0.0000000), wk =   0.0132450
        k(   78) = (  -1.0000000   0.2833333   0.0000000), wk =   0.0132450
        k(   79) = (  -1.0000000   0.3000000   0.0000000), wk =   0.0132450
        k(   80) = (  -1.0000000   0.3166667   0.0000000), wk =   0.0132450
        k(   81) = (  -1.0000000   0.3333333   0.0000000), wk =   0.0132450
        k(   82) = (  -1.0000000   0.3500000   0.0000000), wk =   0.0132450
        k(   83) = (  -1.0000000   0.3666667   0.0000000), wk =   0.0132450
        k(   84) = (  -1.0000000   0.3833333   0.0000000), wk =   0.0132450
        k(   85) = (  -1.0000000   0.4000000   0.0000000), wk =   0.0132450
        k(   86) = (  -1.0000000   0.4166667   0.0000000), wk =   0.0132450
        k(   87) = (  -1.0000000   0.4333333   0.0000000), wk =   0.0132450
        k(   88) = (  -1.0000000   0.4500000   0.0000000), wk =   0.0132450
        k(   89) = (  -1.0000000   0.4666667   0.0000000), wk =   0.0132450
        k(   90) = (  -1.0000000   0.4833333   0.0000000), wk =   0.0132450
        k(   91) = (  -1.0000000   0.5000000   0.0000000), wk =   0.0132450
        k(   92) = (  -0.9833333   0.5000000   0.0166667), wk =   0.0132450
        k(   93) = (  -0.9666667   0.5000000   0.0333333), wk =   0.0132450
        k(   94) = (  -0.9500000   0.5000000   0.0500000), wk =   0.0132450
        k(   95) = (  -0.9333333   0.5000000   0.0666667), wk =   0.0132450
        k(   96) = (  -0.9166667   0.5000000   0.0833333), wk =   0.0132450
        k(   97) = (  -0.9000000   0.5000000   0.1000000), wk =   0.0132450
        k(   98) = (  -0.8833333   0.5000000   0.1166667), wk =   0.0132450
        k(   99) = (  -0.8666667   0.5000000   0.1333333), wk =   0.0132450
        k(  100) = (  -0.8500000   0.5000000   0.1500000), wk =   0.0132450
        k(  101) = (  -0.8333333   0.5000000   0.1666667), wk =   0.0132450
        k(  102) = (  -0.8166667   0.5000000   0.1833333), wk =   0.0132450
        k(  103) = (  -0.8000000   0.5000000   0.2000000), wk =   0.0132450
        k(  104) = (  -0.7833333   0.5000000   0.2166667), wk =   0.0132450
        k(  105) = (  -0.7666667   0.5000000   0.2333333), wk =   0.0132450
        k(  106) = (  -0.7500000   0.5000000   0.2500000), wk =   0.0132450
        k(  107) = (  -0.7333333   0.5000000   0.2666667), wk =   0.0132450
        k(  108) = (  -0.7166667   0.5000000   0.2833333), wk =   0.0132450
        k(  109) = (  -0.7000000   0.5000000   0.3000000), wk =   0.0132450
        k(  110) = (  -0.6833333   0.5000000   0.3166667), wk =   0.0132450
        k(  111) = (  -0.6666667   0.5000000   0.3333333), wk =   0.0132450
        k(  112) = (  -0.6500000   0.5000000   0.3500000), wk =   0.0132450
        k(  113) = (  -0.6333333   0.5000000   0.3666667), wk =   0.0132450
        k(  114) = (  -0.6166667   0.5000000   0.3833333), wk =   0.0132450
        k(  115) = (  -0.6000000   0.5000000   0.4000000), wk =   0.0132450
        k(  116) = (  -0.5833333   0.5000000   0.4166667), wk =   0.0132450
        k(  117) = (  -0.5666667   0.5000000   0.4333333), wk =   0.0132450
        k(  118) = (  -0.5500000   0.5000000   0.4500000), wk =   0.0132450
        k(  119) = (  -0.5333333   0.5000000   0.4666667), wk =   0.0132450
        k(  120) = (  -0.5166667   0.5000000   0.4833333), wk =   0.0132450
        k(  121) = (  -0.5000000   0.5000000   0.5000000), wk =   0.0132450
        k(  122) = (  -0.4833333   0.4833333   0.4833333), wk =   0.0132450
        k(  123) = (  -0.4666667   0.4666667   0.4666667), wk =   0.0132450
        k(  124) = (  -0.4500000   0.4500000   0.4500000), wk =   0.0132450
        k(  125) = (  -0.4333333   0.4333333   0.4333333), wk =   0.0132450
        k(  126) = (  -0.4166667   0.4166667   0.4166667), wk =   0.0132450
        k(  127) = (  -0.4000000   0.4000000   0.4000000), wk =   0.0132450
        k(  128) = (  -0.3833333   0.3833333   0.3833333), wk =   0.0132450
        k(  129) = (  -0.3666667   0.3666667   0.3666667), wk =   0.0132450
        k(  130) = (  -0.3500000   0.3500000   0.3500000), wk =   0.0132450
        k(  131) = (  -0.3333333   0.3333333   0.3333333), wk =   0.0132450
        k(  132) = (  -0.3166667   0.3166667   0.3166667), wk =   0.0132450
        k(  133) = (  -0.3000000   0.3000000   0.3000000), wk =   0.0132450
        k(  134) = (  -0.2833333   0.2833333   0.2833333), wk =   0.0132450
        k(  135) = (  -0.2666667   0.2666667   0.2666667), wk =   0.0132450
        k(  136) = (  -0.2500000   0.2500000   0.2500000), wk =   0.0132450
        k(  137) = (  -0.2333333   0.2333333   0.2333333), wk =   0.0132450
        k(  138) = (  -0.2166667   0.2166667   0.2166667), wk =   0.0132450
        k(  139) = (  -0.2000000   0.2000000   0.2000000), wk =   0.0132450
        k(  140) = (  -0.1833333   0.1833333   0.1833333), wk =   0.0132450
        k(  141) = (  -0.1666667   0.1666667   0.1666667), wk =   0.0132450
        k(  142) = (  -0.1500000   0.1500000   0.1500000), wk =   0.0132450
        k(  143) = (  -0.1333333   0.1333333   0.1333333), wk =   0.0132450
        k(  144) = (  -0.1166667   0.1166667   0.1166667), wk =   0.0132450
        k(  145) = (  -0.1000000   0.1000000   0.1000000), wk =   0.0132450
        k(  146) = (  -0.0833333   0.0833333   0.0833333), wk =   0.0132450
        k(  147) = (  -0.0666667   0.0666667   0.0666667), wk =   0.0132450
        k(  148) = (  -0.0500000   0.0500000   0.0500000), wk =   0.0132450
        k(  149) = (  -0.0333333   0.0333333   0.0333333), wk =   0.0132450
        k(  150) = (  -0.0166667   0.0166667   0.0166667), wk =   0.0132450
        k(  151) = (   0.0000000   0.0000000   0.0000000), wk =   0.0132450

                       cryst. coord.
        k(    1) = (   0.5000000   0.2500000   0.7500000), wk =   0.0132450
        k(    2) = (   0.4833333   0.2416667   0.7250000), wk =   0.0132450
        k(    3) = (   0.4666667   0.2333333   0.7000000), wk =   0.0132450
        k(    4) = (   0.4500000   0.2250000   0.6750000), wk =   0.0132450
        k(    5) = (   0.4333333   0.2166667   0.6500000), wk =   0.0132450
        k(    6) = (   0.4166667   0.2083333   0.6250000), wk =   0.0132450
        k(    7) = (   0.4000000   0.2000000   0.6000000), wk =   0.0132450
        k(    8) = (   0.3833333   0.1916667   0.5750000), wk =   0.0132450
        k(    9) = (   0.3666667   0.1833333   0.5500000), wk =   0.0132450
        k(   10) = (   0.3500000   0.1750000   0.5250000), wk =   0.0132450
        k(   11) = (   0.3333333   0.1666667   0.5000000), wk =   0.0132450
        k(   12) = (   0.3166667   0.1583333   0.4750000), wk =   0.0132450
        k(   13) = (   0.3000000   0.1500000   0.4500000), wk =   0.0132450
        k(   14) = (   0.2833333   0.1416667   0.4250000), wk =   0.0132450
        k(   15) = (   0.2666667   0.1333333   0.4000000), wk =   0.0132450
        k(   16) = (   0.2500000   0.1250000   0.3750000), wk =   0.0132450
        k(   17) = (   0.2333333   0.1166667   0.3500000), wk =   0.0132450
        k(   18) = (   0.2166667   0.1083333   0.3250000), wk =   0.0132450
        k(   19) = (   0.2000000   0.1000000   0.3000000), wk =   0.0132450
        k(   20) = (   0.1833333   0.0916667   0.2750000), wk =   0.0132450
        k(   21) = (   0.1666667   0.0833333   0.2500000), wk =   0.0132450
        k(   22) = (   0.1500000   0.0750000   0.2250000), wk =   0.0132450
        k(   23) = (   0.1333333   0.0666667   0.2000000), wk =   0.0132450
        k(   24) = (   0.1166667   0.0583333   0.1750000), wk =   0.0132450
        k(   25) = (   0.1000000   0.0500000   0.1500000), wk =   0.0132450
        k(   26) = (   0.0833333   0.0416667   0.1250000), wk =   0.0132450
        k(   27) = (   0.0666667   0.0333333   0.1000000), wk =   0.0132450
        k(   28) = (   0.0500000   0.0250000   0.0750000), wk =   0.0132450
        k(   29) = (   0.0333333   0.0166667   0.0500000), wk =   0.0132450
        k(   30) = (   0.0166667   0.0083333   0.0250000), wk =   0.0132450
        k(   31) = (   0.0000000   0.0000000   0.0000000), wk =   0.0132450
        k(   32) = (   0.0166667   0.0000000   0.0166667), wk =   0.0132450
        k(   33) = (   0.0333333   0.0000000   0.0333333), wk =   0.0132450
        k(   34) = (   0.0500000   0.0000000   0.0500000), wk =   0.0132450
        k(   35) = (   0.0666667   0.0000000   0.0666667), wk =   0.0132450
        k(   36) = (   0.0833333   0.0000000   0.0833333), wk =   0.0132450
        k(   37) = (   0.1000000   0.0000000   0.1000000), wk =   0.0132450
        k(   38) = (   0.1166667   0.0000000   0.1166667), wk =   0.0132450
        k(   39) = (   0.1333333   0.0000000   0.1333333), wk =   0.0132450
        k(   40) = (   0.1500000   0.0000000   0.1500000), wk =   0.0132450
        k(   41) = (   0.1666667   0.0000000   0.1666667), wk =   0.0132450
        k(   42) = (   0.1833333   0.0000000   0.1833333), wk =   0.0132450
        k(   43) = (   0.2000000   0.0000000   0.2000000), wk =   0.0132450
        k(   44) = (   0.2166667   0.0000000   0.2166667), wk =   0.0132450
        k(   45) = (   0.2333333   0.0000000   0.2333333), wk =   0.0132450
        k(   46) = (   0.2500000   0.0000000   0.2500000), wk =   0.0132450
        k(   47) = (   0.2666667   0.0000000   0.2666667), wk =   0.0132450
        k(   48) = (   0.2833333   0.0000000   0.2833333), wk =   0.0132450
        k(   49) = (   0.3000000   0.0000000   0.3000000), wk =   0.0132450
        k(   50) = (   0.3166667   0.0000000   0.3166667), wk =   0.0132450
        k(   51) = (   0.3333333   0.0000000   0.3333333), wk =   0.0132450
        k(   52) = (   0.3500000   0.0000000   0.3500000), wk =   0.0132450
        k(   53) = (   0.3666667   0.0000000   0.3666667), wk =   0.0132450
        k(   54) = (   0.3833333   0.0000000   0.3833333), wk =   0.0132450
        k(   55) = (   0.4000000   0.0000000   0.4000000), wk =   0.0132450
        k(   56) = (   0.4166667   0.0000000   0.4166667), wk =   0.0132450
        k(   57) = (   0.4333333   0.0000000   0.4333333), wk =   0.0132450
        k(   58) = (   0.4500000   0.0000000   0.4500000), wk =   0.0132450
        k(   59) = (   0.4666667   0.0000000   0.4666667), wk =   0.0132450
        k(   60) = (   0.4833333   0.0000000   0.4833333), wk =   0.0132450
        k(   61) = (   0.5000000   0.0000000   0.5000000), wk =   0.0132450
        k(   62) = (   0.5000000   0.0083333   0.5083333), wk =   0.0132450
        k(   63) = (   0.5000000   0.0166667   0.5166667), wk =   0.0132450
        k(   64) = (   0.5000000   0.0250000   0.5250000), wk =   0.0132450
        k(   65) = (   0.5000000   0.0333333   0.5333333), wk =   0.0132450
        k(   66) = (   0.5000000   0.0416667   0.5416667), wk =   0.0132450
        k(   67) = (   0.5000000   0.0500000   0.5500000), wk =   0.0132450
        k(   68) = (   0.5000000   0.0583333   0.5583333), wk =   0.0132450
        k(   69) = (   0.5000000   0.0666667   0.5666667), wk =   0.0132450
        k(   70) = (   0.5000000   0.0750000   0.5750000), wk =   0.0132450
        k(   71) = (   0.5000000   0.0833333   0.5833333), wk =   0.0132450
        k(   72) = (   0.5000000   0.0916667   0.5916667), wk =   0.0132450
        k(   73) = (   0.5000000   0.1000000   0.6000000), wk =   0.0132450
        k(   74) = (   0.5000000   0.1083333   0.6083333), wk =   0.0132450
        k(   75) = (   0.5000000   0.1166667   0.6166667), wk =   0.0132450
        k(   76) = (   0.5000000   0.1250000   0.6250000), wk =   0.0132450
        k(   77) = (   0.5000000   0.1333333   0.6333333), wk =   0.0132450
        k(   78) = (   0.5000000   0.1416667   0.6416667), wk =   0.0132450
        k(   79) = (   0.5000000   0.1500000   0.6500000), wk =   0.0132450
        k(   80) = (   0.5000000   0.1583333   0.6583333), wk =   0.0132450
        k(   81) = (   0.5000000   0.1666667   0.6666667), wk =   0.0132450
        k(   82) = (   0.5000000   0.1750000   0.6750000), wk =   0.0132450
        k(   83) = (   0.5000000   0.1833333   0.6833333), wk =   0.0132450
        k(   84) = (   0.5000000   0.1916667   0.6916667), wk =   0.0132450
        k(   85) = (   0.5000000   0.2000000   0.7000000), wk =   0.0132450
        k(   86) = (   0.5000000   0.2083333   0.7083333), wk =   0.0132450
        k(   87) = (   0.5000000   0.2166667   0.7166667), wk =   0.0132450
        k(   88) = (   0.5000000   0.2250000   0.7250000), wk =   0.0132450
        k(   89) = (   0.5000000   0.2333333   0.7333333), wk =   0.0132450
        k(   90) = (   0.5000000   0.2416667   0.7416667), wk =   0.0132450
        k(   91) = (   0.5000000   0.2500000   0.7500000), wk =   0.0132450
        k(   92) = (   0.5000000   0.2583333   0.7416667), wk =   0.0132450
        k(   93) = (   0.5000000   0.2666667   0.7333333), wk =   0.0132450
        k(   94) = (   0.5000000   0.2750000   0.7250000), wk =   0.0132450
        k(   95) = (   0.5000000   0.2833333   0.7166667), wk =   0.0132450
        k(   96) = (   0.5000000   0.2916667   0.7083333), wk =   0.0132450
        k(   97) = (   0.5000000   0.3000000   0.7000000), wk =   0.0132450
        k(   98) = (   0.5000000   0.3083333   0.6916667), wk =   0.0132450
        k(   99) = (   0.5000000   0.3166667   0.6833333), wk =   0.0132450
        k(  100) = (   0.5000000   0.3250000   0.6750000), wk =   0.0132450
        k(  101) = (   0.5000000   0.3333333   0.6666667), wk =   0.0132450
        k(  102) = (   0.5000000   0.3416667   0.6583333), wk =   0.0132450
        k(  103) = (   0.5000000   0.3500000   0.6500000), wk =   0.0132450
        k(  104) = (   0.5000000   0.3583333   0.6416667), wk =   0.0132450
        k(  105) = (   0.5000000   0.3666667   0.6333333), wk =   0.0132450
        k(  106) = (   0.5000000   0.3750000   0.6250000), wk =   0.0132450
        k(  107) = (   0.5000000   0.3833333   0.6166667), wk =   0.0132450
        k(  108) = (   0.5000000   0.3916667   0.6083333), wk =   0.0132450
        k(  109) = (   0.5000000   0.4000000   0.6000000), wk =   0.0132450
        k(  110) = (   0.5000000   0.4083333   0.5916667), wk =   0.0132450
        k(  111) = (   0.5000000   0.4166667   0.5833333), wk =   0.0132450
        k(  112) = (   0.5000000   0.4250000   0.5750000), wk =   0.0132450
        k(  113) = (   0.5000000   0.4333333   0.5666667), wk =   0.0132450
        k(  114) = (   0.5000000   0.4416667   0.5583333), wk =   0.0132450
        k(  115) = (   0.5000000   0.4500000   0.5500000), wk =   0.0132450
        k(  116) = (   0.5000000   0.4583333   0.5416667), wk =   0.0132450
        k(  117) = (   0.5000000   0.4666667   0.5333333), wk =   0.0132450
        k(  118) = (   0.5000000   0.4750000   0.5250000), wk =   0.0132450
        k(  119) = (   0.5000000   0.4833333   0.5166667), wk =   0.0132450
        k(  120) = (   0.5000000   0.4916667   0.5083333), wk =   0.0132450
        k(  121) = (   0.5000000   0.5000000   0.5000000), wk =   0.0132450
        k(  122) = (   0.4833333   0.4833333   0.4833333), wk =   0.0132450
        k(  123) = (   0.4666667   0.4666667   0.4666667), wk =   0.0132450
        k(  124) = (   0.4500000   0.4500000   0.4500000), wk =   0.0132450
        k(  125) = (   0.4333333   0.4333333   0.4333333), wk =   0.0132450
        k(  126) = (   0.4166667   0.4166667   0.4166667), wk =   0.0132450
        k(  127) = (   0.4000000   0.4000000   0.4000000), wk =   0.0132450
        k(  128) = (   0.3833333   0.3833333   0.3833333), wk =   0.0132450
        k(  129) = (   0.3666667   0.3666667   0.3666667), wk =   0.0132450
        k(  130) = (   0.3500000   0.3500000   0.3500000), wk =   0.0132450
        k(  131) = (   0.3333333   0.3333333   0.3333333), wk =   0.0132450
        k(  132) = (   0.3166667   0.3166667   0.3166667), wk =   0.0132450
        k(  133) = (   0.3000000   0.3000000   0.3000000), wk =   0.0132450
        k(  134) = (   0.2833333   0.2833333   0.2833333), wk =   0.0132450
        k(  135) = (   0.2666667   0.2666667   0.2666667), wk =   0.0132450
        k(  136) = (   0.2500000   0.2500000   0.2500000), wk =   0.0132450
        k(  137) = (   0.2333333   0.2333333   0.2333333), wk =   0.0132450
        k(  138) = (   0.2166667   0.2166667   0.2166667), wk =   0.0132450
        k(  139) = (   0.2000000   0.2000000   0.2000000), wk =   0.0132450
        k(  140) = (   0.1833333   0.1833333   0.1833333), wk =   0.0132450
        k(  141) = (   0.1666667   0.1666667   0.1666667), wk =   0.0132450
        k(  142) = (   0.1500000   0.1500000   0.1500000), wk =   0.0132450
        k(  143) = (   0.1333333   0.1333333   0.1333333), wk =   0.0132450
        k(  144) = (   0.1166667   0.1166667   0.1166667), wk =   0.0132450
        k(  145) = (   0.1000000   0.1000000   0.1000000), wk =   0.0132450
        k(  146) = (   0.0833333   0.0833333   0.0833333), wk =   0.0132450
        k(  147) = (   0.0666667   0.0666667   0.0666667), wk =   0.0132450
        k(  148) = (   0.0500000   0.0500000   0.0500000), wk =   0.0132450
        k(  149) = (   0.0333333   0.0333333   0.0333333), wk =   0.0132450
        k(  150) = (   0.0166667   0.0166667   0.0166667), wk =   0.0132450
        k(  151) = (   0.0000000   0.0000000   0.0000000), wk =   0.0132450

     Dense  grid:     7631 G-vectors     FFT dimensions: (  27,  27,  27)

     Estimated max dynamical RAM per process >       3.58MB

     Check: negative/imaginary core charge=   -0.000003    0.000000

     The potential is recalculated from file :
     ./SCF.save/charge-density.dat

     Starting wfc are    8 randomized atomic wfcs
     Checking if some PAW data can be deallocated... 

     Band Structure Calculation
     Davidson diagonalization with overlap

     Computing kpt #:     1
     total cpu time spent up to now is        0.7 secs

     Computing kpt #:     2
     total cpu time spent up to now is        0.7 secs

     Computing kpt #:     3
     total cpu time spent up to now is        0.8 secs

     Computing kpt #:     4
     total cpu time spent up to now is        0.8 secs

     Computing kpt #:     5
     total cpu time spent up to now is        0.9 secs

     Computing kpt #:     6
     total cpu time spent up to now is        0.9 secs

     Computing kpt #:     7
     total cpu time spent up to now is        1.0 secs

     Computing kpt #:     8
     total cpu time spent up to now is        1.0 secs

     Computing kpt #:     9
     total cpu time spent up to now is        1.1 secs

     Computing kpt #:    10
     total cpu time spent up to now is        1.1 secs

     Computing kpt #:    11
     total cpu time spent up to now is        1.2 secs

     Computing kpt #:    12
     total cpu time spent up to now is        1.2 secs

     Computing kpt #:    13
     total cpu time spent up to now is        1.3 secs

     Computing kpt #:    14
     total cpu time spent up to now is        1.3 secs

     Computing kpt #:    15
     total cpu time spent up to now is        1.4 secs

     Computing kpt #:    16
     total cpu time spent up to now is        1.4 secs

     Computing kpt #:    17
     total cpu time spent up to now is        1.5 secs

     Computing kpt #:    18
     total cpu time spent up to now is        1.5 secs

     Computing kpt #:    19
     total cpu time spent up to now is        1.6 secs

     Computing kpt #:    20
     total cpu time spent up to now is        1.7 secs

     Computing kpt #:    21
     total cpu time spent up to now is        1.7 secs

     Computing kpt #:    22
     total cpu time spent up to now is        1.8 secs

     Computing kpt #:    23
     total cpu time spent up to now is        1.8 secs

     Computing kpt #:    24
     total cpu time spent up to now is        1.9 secs

     Computing kpt #:    25
     total cpu time spent up to now is        1.9 secs

     Computing kpt #:    26
     total cpu time spent up to now is        1.9 secs

     Computing kpt #:    27
     total cpu time spent up to now is        2.0 secs

     Computing kpt #:    28
     total cpu time spent up to now is        2.0 secs

     Computing kpt #:    29
     total cpu time spent up to now is        2.1 secs

     Computing kpt #:    30
     total cpu time spent up to now is        2.1 secs

     Computing kpt #:    31
     total cpu time spent up to now is        2.2 secs

     Computing kpt #:    32
     total cpu time spent up to now is        2.2 secs

     Computing kpt #:    33
     total cpu time spent up to now is        2.2 secs

     Computing kpt #:    34
     total cpu time spent up to now is        2.3 secs

     Computing kpt #:    35
     total cpu time spent up to now is        2.3 secs

     Computing kpt #:    36
     total cpu time spent up to now is        2.4 secs

     Computing kpt #:    37
     total cpu time spent up to now is        2.4 secs

     Computing kpt #:    38
     total cpu time spent up to now is        2.5 secs

     Computing kpt #:    39
     total cpu time spent up to now is        2.5 secs

     Computing kpt #:    40
     total cpu time spent up to now is        2.6 secs

     Computing kpt #:    41
     total cpu time spent up to now is        2.6 secs

     Computing kpt #:    42
     total cpu time spent up to now is        2.7 secs

     Computing kpt #:    43
     total cpu time spent up to now is        2.7 secs

     Computing kpt #:    44
     total cpu time spent up to now is        2.7 secs

     Computing kpt #:    45
     total cpu time spent up to now is        2.8 secs

     Computing kpt #:    46
     total cpu time spent up to now is        2.8 secs

     Computing kpt #:    47
     total cpu time spent up to now is        2.9 secs

     Computing kpt #:    48
     total cpu time spent up to now is        2.9 secs

     Computing kpt #:    49
     total cpu time spent up to now is        3.0 secs

     Computing kpt #:    50
     total cpu time spent up to now is        3.0 secs

     Computing kpt #:    51
     total cpu time spent up to now is        3.1 secs

     Computing kpt #:    52
     total cpu time spent up to now is        3.1 secs

     Computing kpt #:    53
     total cpu time spent up to now is        3.2 secs

     Computing kpt #:    54
     total cpu time spent up to now is        3.2 secs

     Computing kpt #:    55
     total cpu time spent up to now is        3.3 secs

     Computing kpt #:    56
     total cpu time spent up to now is        3.3 secs

     Computing kpt #:    57
     total cpu time spent up to now is        3.4 secs

     Computing kpt #:    58
     total cpu time spent up to now is        3.4 secs

     Computing kpt #:    59
     total cpu time spent up to now is        3.5 secs

     Computing kpt #:    60
     total cpu time spent up to now is        3.5 secs

     Computing kpt #:    61
     total cpu time spent up to now is        3.6 secs

     Computing kpt #:    62
     total cpu time spent up to now is        3.6 secs

     Computing kpt #:    63
     total cpu time spent up to now is        3.7 secs

     Computing kpt #:    64
     total cpu time spent up to now is        3.7 secs

     Computing kpt #:    65
     total cpu time spent up to now is        3.8 secs

     Computing kpt #:    66
     total cpu time spent up to now is        3.8 secs

     Computing kpt #:    67
     total cpu time spent up to now is        3.9 secs

     Computing kpt #:    68
     total cpu time spent up to now is        3.9 secs

     Computing kpt #:    69
     total cpu time spent up to now is        4.0 secs

     Computing kpt #:    70
     total cpu time spent up to now is        4.1 secs

     Computing kpt #:    71
     total cpu time spent up to now is        4.1 secs

     Computing kpt #:    72
     total cpu time spent up to now is        4.2 secs

     Computing kpt #:    73
     total cpu time spent up to now is        4.2 secs

     Computing kpt #:    74
     total cpu time spent up to now is        4.3 secs

     Computing kpt #:    75
     total cpu time spent up to now is        4.3 secs

     Computing kpt #:    76
     total cpu time spent up to now is        4.4 secs

     Computing kpt #:    77
     total cpu time spent up to now is        4.4 secs

     Computing kpt #:    78
     total cpu time spent up to now is        4.5 secs

     Computing kpt #:    79
     total cpu time spent up to now is        4.5 secs

     Computing kpt #:    80
     total cpu time spent up to now is        4.6 secs

     Computing kpt #:    81
     total cpu time spent up to now is        4.6 secs

     Computing kpt #:    82
     total cpu time spent up to now is        4.7 secs

     Computing kpt #:    83
     total cpu time spent up to now is        4.7 secs

     Computing kpt #:    84
     total cpu time spent up to now is        4.8 secs

     Computing kpt #:    85
     total cpu time spent up to now is        4.8 secs

     Computing kpt #:    86
     total cpu time spent up to now is        4.9 secs

     Computing kpt #:    87
     total cpu time spent up to now is        4.9 secs

     Computing kpt #:    88
     total cpu time spent up to now is        5.0 secs

     Computing kpt #:    89
     total cpu time spent up to now is        5.0 secs

     Computing kpt #:    90
     total cpu time spent up to now is        5.1 secs

     Computing kpt #:    91
     total cpu time spent up to now is        5.1 secs

     Computing kpt #:    92
     total cpu time spent up to now is        5.2 secs

     Computing kpt #:    93
     total cpu time spent up to now is        5.2 secs

     Computing kpt #:    94
     total cpu time spent up to now is        5.3 secs

     Computing kpt #:    95
     total cpu time spent up to now is        5.3 secs

     Computing kpt #:    96
     total cpu time spent up to now is        5.4 secs

     Computing kpt #:    97
     total cpu time spent up to now is        5.4 secs

     Computing kpt #:    98
     total cpu time spent up to now is        5.5 secs

     Computing kpt #:    99
     total cpu time spent up to now is        5.5 secs

     Computing kpt #:   100
     total cpu time spent up to now is        5.6 secs

     Computing kpt #:   101
     total cpu time spent up to now is        5.6 secs

     Computing kpt #:   102
     total cpu time spent up to now is        5.7 secs

     Computing kpt #:   103
     total cpu time spent up to now is        5.8 secs

     Computing kpt #:   104
     total cpu time spent up to now is        5.8 secs

     Computing kpt #:   105
     total cpu time spent up to now is        5.9 secs

     Computing kpt #:   106
     total cpu time spent up to now is        6.0 secs

     Computing kpt #:   107
     total cpu time spent up to now is        6.0 secs

     Computing kpt #:   108
     total cpu time spent up to now is        6.1 secs

     Computing kpt #:   109
     total cpu time spent up to now is        6.2 secs

     Computing kpt #:   110
     total cpu time spent up to now is        6.2 secs

     Computing kpt #:   111
     total cpu time spent up to now is        6.3 secs

     Computing kpt #:   112
     total cpu time spent up to now is        6.3 secs

     Computing kpt #:   113
     total cpu time spent up to now is        6.4 secs

     Computing kpt #:   114
     total cpu time spent up to now is        6.4 secs

     Computing kpt #:   115
     total cpu time spent up to now is        6.5 secs

     Computing kpt #:   116
     total cpu time spent up to now is        6.5 secs

     Computing kpt #:   117
     total cpu time spent up to now is        6.6 secs

     Computing kpt #:   118
     total cpu time spent up to now is        6.6 secs

     Computing kpt #:   119
     total cpu time spent up to now is        6.7 secs

     Computing kpt #:   120
     total cpu time spent up to now is        6.7 secs

     Computing kpt #:   121
     total cpu time spent up to now is        6.8 secs

     Computing kpt #:   122
     total cpu time spent up to now is        6.8 secs

     Computing kpt #:   123
     total cpu time spent up to now is        6.9 secs

     Computing kpt #:   124
     total cpu time spent up to now is        6.9 secs

     Computing kpt #:   125
     total cpu time spent up to now is        7.0 secs

     Computing kpt #:   126
     total cpu time spent up to now is        7.0 secs

     Computing kpt #:   127
     total cpu time spent up to now is        7.1 secs

     Computing kpt #:   128
     total cpu time spent up to now is        7.1 secs

     Computing kpt #:   129
     total cpu time spent up to now is        7.2 secs

     Computing kpt #:   130
     total cpu time spent up to now is        7.2 secs

     Computing kpt #:   131
     total cpu time spent up to now is        7.3 secs

     Computing kpt #:   132
     total cpu time spent up to now is        7.3 secs

     Computing kpt #:   133
     total cpu time spent up to now is        7.4 secs

     Computing kpt #:   134
     total cpu time spent up to now is        7.5 secs

     Computing kpt #:   135
     total cpu time spent up to now is        7.5 secs

     Computing kpt #:   136
     total cpu time spent up to now is        7.6 secs

     Computing kpt #:   137
     total cpu time spent up to now is        7.6 secs

     Computing kpt #:   138
     total cpu time spent up to now is        7.7 secs

     Computing kpt #:   139
     total cpu time spent up to now is        7.7 secs

     Computing kpt #:   140
     total cpu time spent up to now is        7.8 secs

     Computing kpt #:   141
     total cpu time spent up to now is        7.8 secs

     Computing kpt #:   142
     total cpu time spent up to now is        7.9 secs

     Computing kpt #:   143
     total cpu time spent up to now is        7.9 secs

     Computing kpt #:   144
     total cpu time spent up to now is        8.0 secs

     Computing kpt #:   145
     total cpu time spent up to now is        8.0 secs

     Computing kpt #:   146
     total cpu time spent up to now is        8.0 secs

     Computing kpt #:   147
     total cpu time spent up to now is        8.1 secs

     Computing kpt #:   148
     total cpu time spent up to now is        8.1 secs

     Computing kpt #:   149
     total cpu time spent up to now is        8.2 secs

     Computing kpt #:   150
     total cpu time spent up to now is        8.2 secs

     Computing kpt #:   151
     total cpu time spent up to now is        8.3 secs

     ethr =  1.25E-08,  avg # of iterations = 13.2

     total cpu time spent up to now is        8.3 secs

     End of band structure calculation

          k =-1.0000 0.5000 0.0000 (   952 PWs)   bands (ev):

    -1.4458  -1.4454   2.3568   2.3569  10.4833  10.4835  11.2110  11.2114

          k =-0.9667 0.4833 0.0000 (   943 PWs)   bands (ev):

    -1.6073  -1.2875   2.2580   2.4775  10.3733  10.4597  11.0883  11.4926

          k =-0.9333 0.4667 0.0000 (   943 PWs)   bands (ev):

    -1.7847  -1.1199   2.1923   2.6082  10.2729  10.3050  10.9771  11.9318

          k =-0.9000 0.4500 0.0000 (   945 PWs)   bands (ev):

    -1.9757  -0.9426   2.1586   2.7484  10.1250  10.1828  10.8774  12.4214

          k =-0.8667 0.4333 0.0000 (   945 PWs)   bands (ev):

    -2.1777  -0.7558   2.1552   2.8972   9.9448  10.1041  10.7890  12.9347

          k =-0.8333 0.4167 0.0000 (   945 PWs)   bands (ev):

    -2.3878  -0.5595   2.1798   3.0539   9.7714  10.0376  10.7111  13.4625

          k =-0.8000 0.4000 0.0000 (   940 PWs)   bands (ev):

    -2.6029  -0.3536   2.2298   3.2173   9.6075   9.9845  10.6429  13.9995

          k =-0.7667 0.3833 0.0000 (   945 PWs)   bands (ev):

    -2.8205  -0.1383   2.3030   3.3864   9.4543   9.9459  10.5832  14.3111

          k =-0.7333 0.3667 0.0000 (   945 PWs)   bands (ev):

    -3.0381   0.0864   2.3970   3.5599   9.3126   9.9230  10.5311  13.9600

          k =-0.7000 0.3500-0.0000 (   947 PWs)   bands (ev):

    -3.2537   0.3205   2.5099   3.7366   9.1828   9.9167  10.4852  13.6153

          k =-0.6667 0.3333 0.0000 (   937 PWs)   bands (ev):

    -3.4656   0.5640   2.6400   3.9149   9.0650   9.9279  10.4443  13.2781

          k =-0.6333 0.3167-0.0000 (   940 PWs)   bands (ev):

    -3.6723   0.8168   2.7857   4.0936   8.9593   9.9565  10.4075  12.9487

          k =-0.6000 0.3000 0.0000 (   939 PWs)   bands (ev):

    -3.8727   1.0788   2.9454   4.2710   8.8659  10.0011  10.3751  12.6273

          k =-0.5667 0.2833 0.0000 (   943 PWs)   bands (ev):

    -4.0656   1.3499   3.1180   4.4457   8.7848  10.0558  10.3516  12.3143

          k =-0.5333 0.2667 0.0000 (   941 PWs)   bands (ev):

    -4.2504   1.6300   3.3022   4.6165   8.7159  10.1022  10.3533  12.0097

          k =-0.5000 0.2500 0.0000 (   947 PWs)   bands (ev):

    -4.4263   1.9188   3.4967   4.7820   8.6591  10.1091  10.4088  11.7136

          k =-0.4667 0.2333 0.0000 (   944 PWs)   bands (ev):

    -4.5927   2.2160   3.7002   4.9414   8.6144  10.0742  10.5174  11.4263

          k =-0.4333 0.2167 0.0000 (   944 PWs)   bands (ev):

    -4.7492   2.5215   3.9114   5.0937   8.5815  10.0147  10.6577  11.1480

          k =-0.4000 0.2000 0.0000 (   946 PWs)   bands (ev):

    -4.8953   2.8346   4.1288   5.2385   8.5600   9.9393  10.8153  10.8787

          k =-0.3667 0.1833 0.0000 (   940 PWs)   bands (ev):

    -5.0307   3.1549   4.3510   5.3752   8.5496   9.8518  10.6187  10.9765

          k =-0.3333 0.1667 0.0000 (   936 PWs)   bands (ev):

    -5.1551   3.4815   4.5759   5.5036   8.5496   9.7548  10.3684  11.1206

          k =-0.3000 0.1500-0.0000 (   939 PWs)   bands (ev):

    -5.2683   3.8133   4.8017   5.6235   8.5592   9.6507  10.1282  11.2109

          k =-0.2667 0.1333-0.0000 (   937 PWs)   bands (ev):

    -5.3700   4.1488   5.0257   5.7345   8.5773   9.5420   9.8988  11.1948

          k =-0.2333 0.1167 0.0000 (   937 PWs)   bands (ev):

    -5.4602   4.4857   5.2450   5.8363   8.6024   9.4311   9.6814  11.0439

          k =-0.2000 0.1000 0.0000 (   935 PWs)   bands (ev):

    -5.5385   4.8208   5.4560   5.9283   8.6327   9.3201   9.4777  10.7916

          k =-0.1667 0.0833-0.0000 (   935 PWs)   bands (ev):

    -5.6050   5.1489   5.6541   6.0095   8.6659   9.2102   9.2902  10.4939

          k =-0.1333 0.0667 0.0000 (   939 PWs)   bands (ev):

    -5.6596   5.4622   5.8336   6.0788   8.6991   9.1016   9.1226  10.1951

          k =-0.1000 0.0500 0.0000 (   941 PWs)   bands (ev):

    -5.7021   5.7482   5.9874   6.1348   8.7296   8.9804   8.9938   9.9290

          k =-0.0667 0.0333-0.0000 (   941 PWs)   bands (ev):

    -5.7325   5.9870   6.1070   6.1761   8.7541   8.8703   8.8904   9.7237

          k =-0.0333 0.0167-0.0000 (   941 PWs)   bands (ev):

    -5.7507   6.1509   6.1836   6.2015   8.7700   8.7999   8.8082   9.5977

          k = 0.0000 0.0000 0.0000 (   941 PWs)   bands (ev):

    -5.7568   6.2101   6.2101   6.2101   8.7756   8.7756   8.7756   9.5559

          k =-0.0333 0.0000 0.0000 (   941 PWs)   bands (ev):

    -5.7520   6.1765   6.1889   6.1889   8.7634   8.8027   8.8027   9.5888

          k =-0.0667 0.0000 0.0000 (   941 PWs)   bands (ev):

    -5.7373   6.0797   6.1281   6.1281   8.7276   8.8815   8.8815   9.6830

          k =-0.1000 0.0000 0.0000 (   941 PWs)   bands (ev):

    -5.7130   5.9294   6.0343   6.0343   8.6700   9.0051   9.0051   9.8267

          k =-0.1333 0.0000 0.0000 (   933 PWs)   bands (ev):

    -5.6790   5.7377   5.9158   5.9158   8.5934   9.1655   9.1655  10.0040

          k =-0.1667 0.0000 0.0000 (   937 PWs)   bands (ev):

    -5.6352   5.5151   5.7800   5.7800   8.5010   9.3547   9.3547  10.1971

          k =-0.2000 0.0000 0.0000 (   937 PWs)   bands (ev):

    -5.5818   5.2703   5.6335   5.6335   8.3963   9.5664   9.5664  10.3847

          k =-0.2333 0.0000 0.0000 (   937 PWs)   bands (ev):

    -5.5188   5.0095   5.4808   5.4808   8.2827   9.7958   9.7958  10.5394

          k =-0.2667 0.0000 0.0000 (   937 PWs)   bands (ev):

    -5.4461   4.7373   5.3255   5.3255   8.1630  10.0392  10.0392  10.6261

          k =-0.3000 0.0000 0.0000 (   937 PWs)   bands (ev):

    -5.3640   4.4567   5.1702   5.1702   8.0401  10.2937  10.2937  10.6155

          k =-0.3333 0.0000 0.0000 (   941 PWs)   bands (ev):

    -5.2723   4.1701   5.0169   5.0169   7.9163  10.5060  10.5575  10.5575

          k =-0.3667 0.0000 0.0000 (   950 PWs)   bands (ev):

    -5.1712   3.8791   4.8670   4.8670   7.7934  10.3237  10.8288  10.8288

          k =-0.4000 0.0000 0.0000 (   942 PWs)   bands (ev):

    -5.0607   3.5849   4.7216   4.7216   7.6732  10.0987  11.1065  11.1065

          k =-0.4333 0.0000 0.0000 (   950 PWs)   bands (ev):

    -4.9410   3.2883   4.5815   4.5815   7.5571   9.8525  11.3895  11.3895

          k =-0.4667 0.0000 0.0000 (   950 PWs)   bands (ev):

    -4.8120   2.9902   4.4474   4.4474   7.4462   9.5986  11.6772  11.6772

          k =-0.5000 0.0000 0.0000 (   950 PWs)   bands (ev):

    -4.6739   2.6911   4.3197   4.3197   7.3416   9.3449  11.9690  11.9690

          k =-0.5333 0.0000 0.0000 (   950 PWs)   bands (ev):

    -4.5269   2.3915   4.1991   4.1991   7.2441   9.0964  12.2644  12.2644

          k =-0.5667 0.0000 0.0000 (   942 PWs)   bands (ev):

    -4.3709   2.0919   4.0857   4.0857   7.1544   8.8565  12.5630  12.5630

          k =-0.6000 0.0000 0.0000 (   954 PWs)   bands (ev):

    -4.2062   1.7926   3.9798   3.9798   7.0733   8.6269  12.8644  12.8644

          k =-0.6333 0.0000 0.0000 (   950 PWs)   bands (ev):

    -4.0329   1.4943   3.8818   3.8818   7.0012   8.4093  13.1686  13.1686

          k =-0.6667 0.0000 0.0000 (   950 PWs)   bands (ev):

    -3.8510   1.1971   3.7918   3.7918   6.9386   8.2045  13.4753  13.4753

          k =-0.7000 0.0000 0.0000 (   958 PWs)   bands (ev):

    -3.6609   0.9017   3.7099   3.7099   6.8860   8.0132  13.7844  13.7844

          k =-0.7333 0.0000 0.0000 (   950 PWs)   bands (ev):

    -3.4626   0.6084   3.6363   3.6363   6.8439   7.8358  14.0956  14.0956

          k =-0.7667 0.0000 0.0000 (   954 PWs)   bands (ev):

    -3.2564   0.3177   3.5712   3.5712   6.8125   7.6724  14.4086  14.4086

          k =-0.8000 0.0000 0.0000 (   958 PWs)   bands (ev):

    -3.0424   0.0300   3.5145   3.5145   6.7923   7.5233  14.7229  14.7229

          k =-0.8333 0.0000 0.0000 (   958 PWs)   bands (ev):

    -2.8209  -0.2543   3.4665   3.4665   6.7835   7.3883  15.0377  15.0377

          k =-0.8667 0.0000 0.0000 (   950 PWs)   bands (ev):

    -2.5921  -0.5347   3.4271   3.4271   6.7865   7.2675  15.3511  15.3511

          k =-0.9000 0.0000 0.0000 (   950 PWs)   bands (ev):

    -2.3563  -0.8109   3.3964   3.3964   6.8016   7.1606  15.6593  15.6593

          k =-0.9333 0.0000 0.0000 (   950 PWs)   bands (ev):

    -2.1138  -1.0823   3.3744   3.3744   6.8290   7.0675  15.9525  15.9525

          k =-0.9667 0.0000 0.0000 (   950 PWs)   bands (ev):

    -1.8648  -1.3487   3.3612   3.3612   6.8690   6.9880  16.2012  16.2012

          k =-1.0000 0.0000 0.0000 (   950 PWs)   bands (ev):

    -1.6098  -1.6094   3.3568   3.3568   6.9219   6.9221  16.3149  16.3149

          k =-1.0000 0.0167 0.0000 (   950 PWs)   bands (ev):

    -1.6094  -1.6090   3.3531   3.3531   6.9287   6.9289  16.3041  16.3041

          k =-1.0000 0.0333 0.0000 (   946 PWs)   bands (ev):

    -1.6082  -1.6078   3.3420   3.3420   6.9489   6.9491  16.2705  16.2705

          k =-1.0000 0.0500 0.0000 (   954 PWs)   bands (ev):

    -1.6061  -1.6058   3.3238   3.3238   6.9824   6.9826  16.2113  16.2114

          k =-1.0000 0.0667 0.0000 (   954 PWs)   bands (ev):

    -1.6033  -1.6030   3.2991   3.2991   7.0286   7.0288  16.1236  16.1237

          k =-1.0000 0.0833 0.0000 (   954 PWs)   bands (ev):

    -1.5997  -1.5994   3.2683   3.2683   7.0869   7.0871  16.0067  16.0068

          k =-1.0000 0.1000 0.0000 (   950 PWs)   bands (ev):

    -1.5954  -1.5951   3.2323   3.2323   7.1567   7.1569  15.8633  15.8635

          k =-1.0000 0.1167 0.0000 (   958 PWs)   bands (ev):

    -1.5904  -1.5900   3.1917   3.1917   7.2372   7.2374  15.6983  15.6985

          k =-1.0000 0.1333 0.0000 (   958 PWs)   bands (ev):

    -1.5848  -1.5844   3.1474   3.1474   7.3277   7.3279  15.5171  15.5173

          k =-1.0000 0.1500 0.0000 (   958 PWs)   bands (ev):

    -1.5785  -1.5781   3.1001   3.1001   7.4274   7.4276  15.3240  15.3242

          k =-1.0000 0.1667 0.0000 (   958 PWs)   bands (ev):

    -1.5717  -1.5713   3.0506   3.0506   7.5356   7.5358  15.1224  15.1227

          k =-1.0000 0.1833 0.0000 (   958 PWs)   bands (ev):

    -1.5644  -1.5640   2.9996   2.9996   7.6517   7.6518  14.9150  14.9153

          k =-1.0000 0.2000 0.0000 (   956 PWs)   bands (ev):

    -1.5567  -1.5563   2.9477   2.9477   7.7749   7.7750  14.7036  14.7038

          k =-1.0000 0.2167 0.0000 (   956 PWs)   bands (ev):

    -1.5486  -1.5482   2.8956   2.8956   7.9048   7.9049  14.4893  14.4895

          k =-1.0000 0.2333 0.0000 (   956 PWs)   bands (ev):

    -1.5403  -1.5399   2.8437   2.8438   8.0408   8.0409  14.2733  14.2735

          k =-1.0000 0.2500 0.0000 (   952 PWs)   bands (ev):

    -1.5318  -1.5314   2.7927   2.7928   8.1824   8.1825  14.0563  14.0565

          k =-1.0000 0.2667 0.0000 (   956 PWs)   bands (ev):

    -1.5232  -1.5228   2.7430   2.7430   8.3292   8.3294  13.8388  13.8390

          k =-1.0000 0.2833 0.0000 (   950 PWs)   bands (ev):

    -1.5146  -1.5142   2.6949   2.6950   8.4809   8.4810  13.6216  13.6218

          k =-1.0000 0.3000 0.0000 (   950 PWs)   bands (ev):

    -1.5062  -1.5058   2.6490   2.6491   8.6369   8.6370  13.4048  13.4050

          k =-1.0000 0.3167 0.0000 (   954 PWs)   bands (ev):

    -1.4979  -1.4975   2.6055   2.6055   8.7970   8.7971  13.1889  13.1891

          k =-1.0000 0.3333 0.0000 (   946 PWs)   bands (ev):

    -1.4899  -1.4895   2.5647   2.5648   8.9608   8.9609  12.9743  12.9745

          k =-1.0000 0.3500 0.0000 (   948 PWs)   bands (ev):

    -1.4824  -1.4819   2.5269   2.5270   9.1278   9.1279  12.7613  12.7615

          k =-1.0000 0.3667 0.0000 (   944 PWs)   bands (ev):

    -1.4753  -1.4749   2.4924   2.4925   9.2978   9.2979  12.5504  12.5506

          k =-1.0000 0.3833 0.0000 (   944 PWs)   bands (ev):

    -1.4688  -1.4684   2.4615   2.4616   9.4700   9.4701  12.3420  12.3422

          k =-1.0000 0.4000 0.0000 (   946 PWs)   bands (ev):

    -1.4630  -1.4626   2.4342   2.4343   9.6438   9.6439  12.1370  12.1372

          k =-1.0000 0.4167 0.0000 (   942 PWs)   bands (ev):

    -1.4579  -1.4575   2.4109   2.4110   9.8180   9.8181  11.9363  11.9366

          k =-1.0000 0.4333 0.0000 (   942 PWs)   bands (ev):

    -1.4536  -1.4532   2.3916   2.3917   9.9907   9.9908  11.7420  11.7423

          k =-1.0000 0.4500 0.0000 (   942 PWs)   bands (ev):

    -1.4503  -1.4499   2.3764   2.3765  10.1582  10.1582  11.5578  11.5581

          k =-1.0000 0.4667 0.0000 (   942 PWs)   bands (ev):

    -1.4478  -1.4474   2.3655   2.3657  10.3123  10.3123  11.3917  11.3921

          k =-1.0000 0.4833 0.0000 (   944 PWs)   bands (ev):

    -1.4463  -1.4459   2.3590   2.3591  10.4335  10.4336  11.2633  11.2636

          k =-1.0000 0.5000 0.0000 (   952 PWs)   bands (ev):

    -1.4458  -1.4454   2.3568   2.3569  10.4833  10.4835  11.2110  11.2114

          k =-0.9833 0.5000 0.0167 (   942 PWs)   bands (ev):

    -1.5545  -1.3381   2.2798   2.4426  10.3915  10.5454  11.1442  11.3180

          k =-0.9667 0.5000 0.0333 (   942 PWs)   bands (ev):

    -1.6639  -1.2330   2.2127   2.5359  10.2884  10.5519  11.1428  11.4462

          k =-0.9500 0.5000 0.0500 (   942 PWs)   bands (ev):

    -1.7729  -1.1316   2.1569   2.6358  10.1828  10.4995  11.2100  11.5869

          k =-0.9333 0.5000 0.0667 (   942 PWs)   bands (ev):

    -1.8808  -1.0352   2.1139   2.7413  10.0790  10.4118  11.3224  11.7359

          k =-0.9167 0.5000 0.0833 (   940 PWs)   bands (ev):

    -1.9872  -0.9452   2.0851   2.8517   9.9791  10.3087  11.4598  11.8912

          k =-0.9000 0.5000 0.1000 (   938 PWs)   bands (ev):

    -2.0914  -0.8631   2.0720   2.9660   9.8843  10.1999  11.6125  12.0516

          k =-0.8833 0.5000 0.1167 (   942 PWs)   bands (ev):

    -2.1932  -0.7902   2.0761   3.0835   9.7953  10.0898  11.7760  12.2162

          k =-0.8667 0.5000 0.1333 (   942 PWs)   bands (ev):

    -2.2921  -0.7277   2.0984   3.2036   9.7128   9.9805  11.9481  12.3843

          k =-0.8500 0.5000 0.1500 (   940 PWs)   bands (ev):

    -2.3878  -0.6761   2.1395   3.3254   9.6372   9.8730  12.1274  12.5556

          k =-0.8333 0.5000 0.1667 (   942 PWs)   bands (ev):

    -2.4802  -0.6358   2.1998   3.4482   9.5689   9.7677  12.3134  12.7293

          k =-0.8167 0.5000 0.1833 (   944 PWs)   bands (ev):

    -2.5689  -0.6064   2.2787   3.5712   9.5080   9.6650  12.5056  12.9048

          k =-0.8000 0.5000 0.2000 (   946 PWs)   bands (ev):

    -2.6539  -0.5872   2.3756   3.6938   9.4551   9.5647  12.7035  13.0813

          k =-0.7833 0.5000 0.2167 (   946 PWs)   bands (ev):

    -2.7349  -0.5771   2.4890   3.8151   9.4103   9.4667  12.7639  12.9084

          k =-0.7667 0.5000 0.2333 (   948 PWs)   bands (ev):

    -2.8118  -0.5748   2.6175   3.9343   9.3706   9.3738  12.4400  13.1168

          k =-0.7500 0.5000 0.2500 (   948 PWs)   bands (ev):

    -2.8845  -0.5789   2.7594   4.0507   9.2761   9.3457  12.1226  13.3310

          k =-0.7333 0.5000 0.2667 (   948 PWs)   bands (ev):

    -2.9528  -0.5880   2.9131   4.1634   9.1823   9.3261  11.8139  13.5505

          k =-0.7167 0.5000 0.2833 (   946 PWs)   bands (ev):

    -3.0168  -0.6009   3.0768   4.2717   9.0883   9.3151  11.5156  13.7750

          k =-0.7000 0.5000 0.3000 (   950 PWs)   bands (ev):

    -3.0763  -0.6164   3.2488   4.3747   8.9928   9.3122  11.2299  14.0043

          k =-0.6833 0.5000 0.3167 (   950 PWs)   bands (ev):

    -3.1313  -0.6335   3.4275   4.4717   8.8944   9.3173  10.9593  14.1943

          k =-0.6667 0.5000 0.3333 (   944 PWs)   bands (ev):

    -3.1816  -0.6513   3.6110   4.5622   8.7914   9.3297  10.7067  14.2848

          k =-0.6500 0.5000 0.3500 (   944 PWs)   bands (ev):

    -3.2273  -0.6692   3.7975   4.6453   8.6818   9.3486  10.4753  14.3354

          k =-0.6333 0.5000 0.3667 (   944 PWs)   bands (ev):

    -3.2683  -0.6866   3.9848   4.7208   8.5645   9.3728  10.2681  14.3421

          k =-0.6167 0.5000 0.3833 (   944 PWs)   bands (ev):

    -3.3046  -0.7029   4.1703   4.7880   8.4389   9.4011  10.0877  14.3096

          k =-0.6000 0.5000 0.4000 (   946 PWs)   bands (ev):

    -3.3360  -0.7178   4.3507   4.8467   8.3068   9.4316   9.9356  14.2496

          k =-0.5833 0.5000 0.4167 (   944 PWs)   bands (ev):

    -3.3627  -0.7308   4.5218   4.8967   8.1720   9.4625   9.8117  14.1763

          k =-0.5667 0.5000 0.4333 (   946 PWs)   bands (ev):

    -3.3846  -0.7418   4.6784   4.9377   8.0411   9.4918   9.7147  14.1016

          k =-0.5500 0.5000 0.4500 (   946 PWs)   bands (ev):

    -3.4016  -0.7506   4.8136   4.9696   7.9228   9.5174   9.6425  14.0350

          k =-0.5333 0.5000 0.4667 (   952 PWs)   bands (ev):

    -3.4138  -0.7570   4.9193   4.9925   7.8272   9.5373   9.5928  13.9829

          k =-0.5167 0.5000 0.4833 (   960 PWs)   bands (ev):

    -3.4211  -0.7608   4.9872   5.0062   7.7646   9.5499   9.5638  13.9500

          k =-0.5000 0.5000 0.5000 (   960 PWs)   bands (ev):

    -3.4235  -0.7621   5.0108   5.0108   7.7428   9.5542   9.5542  13.9388

          k =-0.4833 0.4833 0.4833 (   960 PWs)   bands (ev):

    -3.4394  -0.7393   5.0128   5.0128   7.7451   9.5565   9.5565  13.9424

          k =-0.4667 0.4667 0.4667 (   942 PWs)   bands (ev):

    -3.4856  -0.6725   5.0187   5.0187   7.7520   9.5634   9.5634  13.9530

          k =-0.4500 0.4500 0.4500 (   942 PWs)   bands (ev):

    -3.5578  -0.5660   5.0287   5.0287   7.7634   9.5747   9.5747  13.9702

          k =-0.4333 0.4333 0.4333 (   945 PWs)   bands (ev):

    -3.6504  -0.4254   5.0427   5.0427   7.7794   9.5899   9.5899  13.9934

          k =-0.4167 0.4167 0.4167 (   944 PWs)   bands (ev):

    -3.7579  -0.2564   5.0606   5.0606   7.8000   9.6086   9.6086  14.0211

          k =-0.4000 0.4000 0.4000 (   941 PWs)   bands (ev):

    -3.8753  -0.0637   5.0825   5.0825   7.8250   9.6299   9.6299  14.0513

          k =-0.3833 0.3833 0.3833 (   941 PWs)   bands (ev):

    -3.9989   0.1484   5.1084   5.1084   7.8544   9.6531   9.6531  14.0804

          k =-0.3667 0.3667 0.3667 (   941 PWs)   bands (ev):

    -4.1254   0.3770   5.1381   5.1381   7.8882   9.6769   9.6769  14.1023

          k =-0.3500 0.3500 0.3500 (   941 PWs)   bands (ev):

    -4.2527   0.6195   5.1717   5.1717   7.9262   9.7000   9.7000  14.1064

          k =-0.3333 0.3333 0.3333 (   938 PWs)   bands (ev):

    -4.3789   0.8740   5.2092   5.2092   7.9684   9.7207   9.7207  14.0755

          k =-0.3167 0.3167 0.3167 (   941 PWs)   bands (ev):

    -4.5026   1.1389   5.2503   5.2503   8.0145   9.7371   9.7371  13.9893

          k =-0.3000 0.3000 0.3000 (   941 PWs)   bands (ev):

    -4.6230   1.4132   5.2952   5.2952   8.0644   9.7471   9.7471  13.8152

          k =-0.2833 0.2833 0.2833 (   941 PWs)   bands (ev):

    -4.7391   1.6956   5.3435   5.3435   8.1179   9.7487   9.7487  13.6298

          k =-0.2667 0.2667 0.2667 (   941 PWs)   bands (ev):

    -4.8504   1.9854   5.3952   5.3952   8.1747   9.7399   9.7399  13.3844

          k =-0.2500 0.2500 0.2500 (   941 PWs)   bands (ev):

    -4.9564   2.2815   5.4500   5.4500   8.2344   9.7188   9.7188  13.1162

          k =-0.2333 0.2333 0.2333 (   935 PWs)   bands (ev):

    -5.0567   2.5833   5.5078   5.5078   8.2966   9.6846   9.6846  12.8344

          k =-0.2167 0.2167 0.2167 (   938 PWs)   bands (ev):

    -5.1510   2.8898   5.5681   5.5681   8.3607   9.6368   9.6368  12.5440

          k =-0.2000 0.2000 0.2000 (   938 PWs)   bands (ev):

    -5.2389   3.2002   5.6305   5.6305   8.4262   9.5761   9.5761  12.2483

          k =-0.1833 0.1833 0.1833 (   932 PWs)   bands (ev):

    -5.3204   3.5133   5.6945   5.6945   8.4921   9.5041   9.5041  11.9494

          k =-0.1667 0.1667 0.1667 (   923 PWs)   bands (ev):

    -5.3953   3.8280   5.7596   5.7596   8.5575   9.4231   9.4231  11.6493

          k =-0.1500 0.1500 0.1500 (   932 PWs)   bands (ev):

    -5.4634   4.1427   5.8248   5.8248   8.6210   9.3359   9.3359  11.3496

          k =-0.1333 0.1333 0.1333 (   932 PWs)   bands (ev):

    -5.5245   4.4554   5.8894   5.8894   8.6812   9.2454   9.2454  11.0530

          k =-0.1167 0.1167 0.1167 (   932 PWs)   bands (ev):

    -5.5787   4.7637   5.9521   5.9521   8.7358   9.1550   9.1550  10.7626

          k =-0.1000 0.1000 0.1000 (   938 PWs)   bands (ev):

    -5.6258   5.0637   6.0116   6.0116   8.7822   9.0678   9.0678  10.4834

          k =-0.0833 0.0833 0.0833 (   944 PWs)   bands (ev):

    -5.6657   5.3506   6.0663   6.0663   8.8169   8.9870   8.9870  10.2223

          k =-0.0667 0.0667 0.0667 (   941 PWs)   bands (ev):

    -5.6985   5.6169   6.1147   6.1147   8.8356   8.9157   8.9157   9.9896

          k =-0.0500 0.0500 0.0500 (   941 PWs)   bands (ev):

    -5.7240   5.8519   6.1548   6.1548   8.8342   8.8566   8.8566   9.7983

          k =-0.0333 0.0333 0.0333 (   941 PWs)   bands (ev):

    -5.7422   6.0410   6.1849   6.1849   8.8123   8.8123   8.8141   9.6607

          k =-0.0167 0.0167 0.0167 (   941 PWs)   bands (ev):

    -5.7532   6.1660   6.2037   6.2037   8.7849   8.7849   8.7878   9.5813

          k = 0.0000 0.0000 0.0000 (   941 PWs)   bands (ev):

    -5.7568   6.2101   6.2101   6.2101   8.7756   8.7756   8.7756   9.5559

     Writing output data file SCF.save
 
     init_run     :      0.27s CPU      0.27s WALL (       1 calls)
     electrons    :      7.48s CPU      7.64s WALL (       1 calls)

     Called by init_run:
     wfcinit      :      0.00s CPU      0.00s WALL (       1 calls)
     wfcinit:atom :      0.01s CPU      0.02s WALL (     151 calls)
     wfcinit:wfcr :      0.59s CPU      0.60s WALL (     151 calls)
     potinit      :      0.08s CPU      0.09s WALL (       1 calls)

     Called by electrons:
     c_bands      :      7.48s CPU      7.64s WALL (       1 calls)
     v_of_rho     :      0.01s CPU      0.01s WALL (       1 calls)
     v_h          :      0.00s CPU      0.00s WALL (       1 calls)
     v_xc         :      0.01s CPU      0.01s WALL (       1 calls)
     newd         :      0.00s CPU      0.00s WALL (       1 calls)
     PAW_pot      :      0.07s CPU      0.07s WALL (       1 calls)

     Called by c_bands:
     init_us_2    :      0.02s CPU      0.02s WALL (     151 calls)
     cegterg      :      6.71s CPU      6.82s WALL (     160 calls)

     Called by sum_band:

     Called by *egterg:
     h_psi        :      6.04s CPU      6.14s WALL (    2307 calls)
     s_psi        :      0.12s CPU      0.11s WALL (    2307 calls)
     g_psi        :      0.07s CPU      0.07s WALL (    1996 calls)
     cdiaghg      :      0.38s CPU      0.39s WALL (    2147 calls)
     cegterg:over :      0.25s CPU      0.26s WALL (    1996 calls)
     cegterg:upda :      0.18s CPU      0.19s WALL (    1996 calls)
     cegterg:last :      0.13s CPU      0.13s WALL (     511 calls)

     Called by h_psi:
     h_psi:pot    :      6.02s CPU      6.10s WALL (    2307 calls)
     h_psi:calbec :      0.12s CPU      0.12s WALL (    2307 calls)
     vloc_psi     :      5.78s CPU      5.86s WALL (    2307 calls)
     add_vuspsi   :      0.11s CPU      0.11s WALL (    2307 calls)

     General routines
     calbec       :      0.12s CPU      0.12s WALL (    2307 calls)
     fft          :      0.00s CPU      0.00s WALL (      12 calls)
     fftw         :      5.18s CPU      5.23s WALL (   26460 calls)
     davcio       :      0.03s CPU      0.05s WALL (     151 calls)
 
     Parallel routines
     fft_scatter  :      0.44s CPU      0.49s WALL (   26472 calls)

     PAW routines
     PAW_pot      :      0.07s CPU      0.07s WALL (       1 calls)
 
     PWSCF        :     8.32s CPU         8.52s WALL

 
   This run was terminated on:  10:52:20   9Sep2018            

=------------------------------------------------------------------------------=
   JOB DONE.
=------------------------------------------------------------------------------=
