 CRYSTAL
 PRIMVEC
   -2.715299988    0.000000000    2.715299988
    0.000000000    2.715299988    2.715299988
   -2.715299988    2.715299988    0.000000000
 PRIMCOORD
           2           1
Si        0.000000000    0.000000000    0.000000000
Si       -1.357649994    1.357649994    1.357649994
BEGIN_BLOCK_DATAGRID_3D
3D_PWSCF
DATAGRID_3D_UNKNOWN
          28          28          28
  0.000000  0.000000  0.000000
   -2.715300    0.000000    2.715300
    0.000000    2.715300    2.715300
   -2.715300    2.715300    0.000000
  0.638442E-01  0.561565E-01  0.414701E-01  0.357766E-01  0.440352E-01  0.562760E-01
  0.602484E-01  0.549167E-01  0.469664E-01  0.396921E-01  0.337436E-01  0.293515E-01
  0.264892E-01  0.250715E-01  0.250715E-01  0.264892E-01  0.293515E-01  0.337436E-01
  0.396921E-01  0.469664E-01  0.549167E-01  0.602484E-01  0.562760E-01  0.440352E-01
  0.357766E-01  0.414701E-01  0.561565E-01  0.638442E-01  0.561565E-01  0.468158E-01
  0.399559E-01  0.449539E-01  0.576930E-01  0.661672E-01  0.642613E-01  0.568391E-01
  0.491214E-01  0.423896E-01  0.370572E-01  0.332449E-01  0.309534E-01  0.301785E-01
  0.309534E-01  0.332449E-01  0.370572E-01  0.423896E-01  0.491214E-01  0.568391E-01
  0.642613E-01  0.661672E-01  0.576930E-01  0.449539E-01  0.399559E-01  0.468158E-01
  0.561565E-01  0.561565E-01  0.414701E-01  0.399559E-01  0.459184E-01  0.587946E-01
  0.698108E-01  0.713744E-01  0.655427E-01  0.580967E-01  0.511597E-01  0.452506E-01
  0.406576E-01  0.374973E-01  0.358614E-01  0.358614E-01  0.374973E-01  0.406576E-01
  0.452506E-01  0.511597E-01  0.580967E-01  0.655427E-01  0.713744E-01  0.698108E-01
  0.587946E-01  0.459184E-01  0.399559E-01  0.414701E-01  0.434404E-01  0.414701E-01
  0.357766E-01  0.449539E-01  0.587946E-01  0.710757E-01  0.752108E-01  0.715643E-01
  0.652420E-01  0.588553E-01  0.529887E-01  0.480279E-01  0.442075E-01  0.417346E-01
  0.408622E-01  0.417346E-01  0.442075E-01  0.480279E-01  0.529887E-01  0.588553E-01
  0.652420E-01  0.715643E-01  0.752108E-01  0.710757E-01  0.587946E-01  0.449539E-01
  0.357766E-01  0.322111E-01  0.322111E-01  0.357766E-01  0.440352E-01  0.576930E-01
  0.698108E-01  0.752108E-01  0.737197E-01  0.692293E-01  0.641708E-01  0.591081E-01
  0.544185E-01  0.503690E-01  0.472238E-01  0.454246E-01  0.454246E-01  0.472238E-01
  0.503690E-01  0.544185E-01  0.591081E-01  0.641708E-01  0.692293E-01  0.737197E-01
  0.752108E-01  0.698108E-01  0.576930E-01  0.440352E-01  0.341719E-01  0.306969E-01
  0.341719E-01  0.440352E-01  0.562760E-01  0.661672E-01  0.713744E-01  0.715643E-01
  0.692293E-01  0.660750E-01  0.625063E-01  0.588040E-01  0.551174E-01  0.516066E-01
  0.488398E-01  0.477603E-01  0.488398E-01  0.516066E-01  0.551174E-01  0.588040E-01
  0.625063E-01  0.660750E-01  0.692293E-01  0.715643E-01  0.713744E-01  0.661672E-01
  0.562760E-01  0.456871E-01  0.390307E-01  0.390307E-01  0.456871E-01  0.562760E-01
  0.602484E-01  0.642613E-01  0.655427E-01  0.652420E-01  0.641708E-01  0.625063E-01
  0.603694E-01  0.577011E-01  0.543495E-01  0.507804E-01  0.483663E-01  0.483663E-01
  0.507804E-01  0.543495E-01  0.577011E-01  0.603694E-01  0.625063E-01  0.641708E-01
  0.652420E-01  0.655427E-01  0.642613E-01  0.602484E-01  0.539607E-01  0.480951E-01
  0.457106E-01  0.480951E-01  0.539607E-01  0.602484E-01  0.549167E-01  0.568391E-01
  0.580967E-01  0.588553E-01  0.591081E-01  0.588040E-01  0.577011E-01  0.552686E-01
  0.515392E-01  0.479388E-01  0.464382E-01  0.479388E-01  0.515392E-01  0.552686E-01
  0.577011E-01  0.588040E-01  0.591081E-01  0.588553E-01  0.580967E-01  0.568391E-01
  0.549167E-01  0.521088E-01  0.488873E-01  0.466481E-01  0.466481E-01  0.488873E-01
  0.521088E-01  0.549167E-01  0.469664E-01  0.491214E-01  0.511597E-01  0.529887E-01
  0.544185E-01  0.551174E-01  0.543495E-01  0.515392E-01  0.476221E-01  0.447835E-01
  0.447835E-01  0.476221E-01  0.515392E-01  0.543495E-01  0.551174E-01  0.544185E-01
  0.529887E-01  0.511597E-01  0.491214E-01  0.469664E-01  0.447706E-01  0.426674E-01
  0.410202E-01  0.403818E-01  0.410202E-01  0.426674E-01  0.447706E-01  0.469664E-01
  0.396921E-01  0.423896E-01  0.452506E-01  0.480279E-01  0.503690E-01  0.516066E-01
  0.507804E-01  0.479388E-01  0.447835E-01  0.434241E-01  0.447835E-01  0.479388E-01
  0.507804E-01  0.516066E-01  0.503690E-01  0.480279E-01  0.452506E-01  0.423896E-01
  0.396921E-01  0.372576E-01  0.351624E-01  0.335371E-01  0.326249E-01  0.326249E-01
  0.335371E-01  0.351624E-01  0.372576E-01  0.396921E-01  0.337436E-01  0.370572E-01
  0.406576E-01  0.442075E-01  0.472238E-01  0.488398E-01  0.483663E-01  0.464382E-01
  0.447835E-01  0.447835E-01  0.464382E-01  0.483663E-01  0.488398E-01  0.472238E-01
  0.442075E-01  0.406576E-01  0.370572E-01  0.337436E-01  0.309019E-01  0.285930E-01
  0.268327E-01  0.256899E-01  0.252912E-01  0.256899E-01  0.268327E-01  0.285930E-01
  0.309019E-01  0.337436E-01  0.293515E-01  0.332449E-01  0.374973E-01  0.417346E-01
  0.454246E-01  0.477603E-01  0.483663E-01  0.479388E-01  0.476221E-01  0.479388E-01
  0.483663E-01  0.477603E-01  0.454246E-01  0.417346E-01  0.374973E-01  0.332449E-01
  0.293515E-01  0.260531E-01  0.234164E-01  0.214321E-01  0.200731E-01  0.193699E-01
  0.193699E-01  0.200731E-01  0.214321E-01  0.234164E-01  0.260531E-01  0.293515E-01
  0.264892E-01  0.309534E-01  0.358614E-01  0.408622E-01  0.454246E-01  0.488398E-01
  0.507804E-01  0.515392E-01  0.515392E-01  0.507804E-01  0.488398E-01  0.454246E-01
  0.408622E-01  0.358614E-01  0.309534E-01  0.264892E-01  0.227192E-01  0.197195E-01
  0.174636E-01  0.158744E-01  0.149165E-01  0.145942E-01  0.149165E-01  0.158744E-01
  0.174636E-01  0.197195E-01  0.227192E-01  0.264892E-01  0.250715E-01  0.301785E-01
  0.358614E-01  0.417346E-01  0.472238E-01  0.516066E-01  0.543495E-01  0.552686E-01
  0.543495E-01  0.516066E-01  0.472238E-01  0.417346E-01  0.358614E-01  0.301785E-01
  0.250715E-01  0.207864E-01  0.173796E-01  0.148109E-01  0.129723E-01  0.117763E-01
  0.111857E-01  0.111857E-01  0.117763E-01  0.129723E-01  0.148109E-01  0.173796E-01
  0.207864E-01  0.250715E-01  0.250715E-01  0.309534E-01  0.374973E-01  0.442075E-01
  0.503690E-01  0.551174E-01  0.577011E-01  0.577011E-01  0.551174E-01  0.503690E-01
  0.442075E-01  0.374973E-01  0.309534E-01  0.250715E-01  0.201456E-01  0.162434E-01
  0.132975E-01  0.111706E-01  0.973239E-02  0.890329E-02  0.862876E-02  0.890329E-02
  0.973239E-02  0.111706E-01  0.132975E-01  0.162434E-01  0.201456E-01  0.250715E-01
  0.264892E-01  0.332449E-01  0.406576E-01  0.480279E-01  0.544185E-01  0.588040E-01
  0.603694E-01  0.588040E-01  0.544185E-01  0.480279E-01  0.406576E-01  0.332449E-01
  0.264892E-01  0.207864E-01  0.162434E-01  0.128004E-01  0.103009E-01  0.857290E-02
  0.750102E-02  0.698721E-02  0.698721E-02  0.750102E-02  0.857290E-02  0.103009E-01
  0.128004E-01  0.162434E-01  0.207864E-01  0.264892E-01  0.293515E-01  0.370572E-01
  0.452506E-01  0.529887E-01  0.591081E-01  0.625063E-01  0.625063E-01  0.591081E-01
  0.529887E-01  0.452506E-01  0.370572E-01  0.293515E-01  0.227192E-01  0.173796E-01
  0.132975E-01  0.103009E-01  0.819913E-02  0.683252E-02  0.607211E-02  0.583083E-02
  0.607211E-02  0.683252E-02  0.819913E-02  0.103009E-01  0.132975E-01  0.173796E-01
  0.227192E-01  0.293515E-01  0.337436E-01  0.423896E-01  0.511597E-01  0.588553E-01
  0.641708E-01  0.660750E-01  0.641708E-01  0.588553E-01  0.511597E-01  0.423896E-01
  0.337436E-01  0.260531E-01  0.197195E-01  0.148109E-01  0.111706E-01  0.857290E-02
  0.683252E-02  0.577760E-02  0.528773E-02  0.528773E-02  0.577760E-02  0.683252E-02
  0.857290E-02  0.111706E-01  0.148109E-01  0.197195E-01  0.260531E-01  0.337436E-01
  0.396921E-01  0.491214E-01  0.580967E-01  0.652420E-01  0.692293E-01  0.692293E-01
  0.652420E-01  0.580967E-01  0.491214E-01  0.396921E-01  0.309019E-01  0.234164E-01
  0.174636E-01  0.129723E-01  0.973239E-02  0.750102E-02  0.607211E-02  0.528773E-02
  0.503821E-02  0.528773E-02  0.607211E-02  0.750102E-02  0.973239E-02  0.129723E-01
  0.174636E-01  0.234164E-01  0.309019E-01  0.396921E-01  0.469664E-01  0.568391E-01
  0.655427E-01  0.715643E-01  0.737197E-01  0.715643E-01  0.655427E-01  0.568391E-01
  0.469664E-01  0.372576E-01  0.285930E-01  0.214321E-01  0.158744E-01  0.117763E-01
  0.890329E-02  0.698721E-02  0.583083E-02  0.528773E-02  0.528773E-02  0.583083E-02
  0.698721E-02  0.890329E-02  0.117763E-01  0.158744E-01  0.214321E-01  0.285930E-01
  0.372576E-01  0.469664E-01  0.549167E-01  0.642613E-01  0.713744E-01  0.752108E-01
  0.752108E-01  0.713744E-01  0.642613E-01  0.549167E-01  0.447706E-01  0.351624E-01
  0.268327E-01  0.200731E-01  0.149165E-01  0.111857E-01  0.862876E-02  0.698721E-02
  0.607211E-02  0.577760E-02  0.607211E-02  0.698721E-02  0.862876E-02  0.111857E-01
  0.149165E-01  0.200731E-01  0.268327E-01  0.351624E-01  0.447706E-01  0.549167E-01
  0.602484E-01  0.661672E-01  0.698108E-01  0.710757E-01  0.698108E-01  0.661672E-01
  0.602484E-01  0.521088E-01  0.426674E-01  0.335371E-01  0.256899E-01  0.193699E-01
  0.145942E-01  0.111857E-01  0.890329E-02  0.750102E-02  0.683252E-02  0.683252E-02
  0.750102E-02  0.890329E-02  0.111857E-01  0.145942E-01  0.193699E-01  0.256899E-01
  0.335371E-01  0.426674E-01  0.521088E-01  0.602484E-01  0.562760E-01  0.576930E-01
  0.587946E-01  0.587946E-01  0.576930E-01  0.562760E-01  0.539607E-01  0.488873E-01
  0.410202E-01  0.326249E-01  0.252912E-01  0.193699E-01  0.149165E-01  0.117763E-01
  0.973239E-02  0.857290E-02  0.819913E-02  0.857290E-02  0.973239E-02  0.117763E-01
  0.149165E-01  0.193699E-01  0.252912E-01  0.326249E-01  0.410202E-01  0.488873E-01
  0.539607E-01  0.562760E-01  0.440352E-01  0.449539E-01  0.459184E-01  0.449539E-01
  0.440352E-01  0.456871E-01  0.480951E-01  0.466481E-01  0.403818E-01  0.326249E-01
  0.256899E-01  0.200731E-01  0.158744E-01  0.129723E-01  0.111706E-01  0.103009E-01
  0.103009E-01  0.111706E-01  0.129723E-01  0.158744E-01  0.200731E-01  0.256899E-01
  0.326249E-01  0.403818E-01  0.466481E-01  0.480951E-01  0.456871E-01  0.440352E-01
  0.357766E-01  0.399559E-01  0.399559E-01  0.357766E-01  0.341719E-01  0.390307E-01
  0.457106E-01  0.466481E-01  0.410202E-01  0.335371E-01  0.268327E-01  0.214321E-01
  0.174636E-01  0.148109E-01  0.132975E-01  0.128004E-01  0.132975E-01  0.148109E-01
  0.174636E-01  0.214321E-01  0.268327E-01  0.335371E-01  0.410202E-01  0.466481E-01
  0.457106E-01  0.390307E-01  0.341719E-01  0.357766E-01  0.414701E-01  0.468158E-01
  0.414701E-01  0.322111E-01  0.306969E-01  0.390307E-01  0.480951E-01  0.488873E-01
  0.426674E-01  0.351624E-01  0.285930E-01  0.234164E-01  0.197195E-01  0.173796E-01
  0.162434E-01  0.162434E-01  0.173796E-01  0.197195E-01  0.234164E-01  0.285930E-01
  0.351624E-01  0.426674E-01  0.488873E-01  0.480951E-01  0.390307E-01  0.306969E-01
  0.322111E-01  0.414701E-01  0.561565E-01  0.561565E-01  0.434404E-01  0.322111E-01
  0.341719E-01  0.456871E-01  0.539607E-01  0.521088E-01  0.447706E-01  0.372576E-01
  0.309019E-01  0.260531E-01  0.227192E-01  0.207864E-01  0.201456E-01  0.207864E-01
  0.227192E-01  0.260531E-01  0.309019E-01  0.372576E-01  0.447706E-01  0.521088E-01
  0.539607E-01  0.456871E-01  0.341719E-01  0.322111E-01  0.434404E-01  0.561565E-01
  0.638442E-01  0.561565E-01  0.414701E-01  0.357766E-01  0.440352E-01  0.562760E-01
  0.602484E-01  0.549167E-01  0.469664E-01  0.396921E-01  0.337436E-01  0.293515E-01
  0.264892E-01  0.250715E-01  0.250715E-01  0.264892E-01  0.293515E-01  0.337436E-01
  0.396921E-01  0.469664E-01  0.549167E-01  0.602484E-01  0.562760E-01  0.440352E-01
  0.357766E-01  0.414701E-01  0.561565E-01  0.638442E-01  0.561565E-01  0.468158E-01
  0.399559E-01  0.449539E-01  0.576930E-01  0.661672E-01  0.642613E-01  0.568391E-01
  0.491214E-01  0.423896E-01  0.370572E-01  0.332449E-01  0.309534E-01  0.301785E-01
  0.309534E-01  0.332449E-01  0.370572E-01  0.423896E-01  0.491214E-01  0.568391E-01
  0.642613E-01  0.661672E-01  0.576930E-01  0.449539E-01  0.399559E-01  0.468158E-01
  0.561565E-01  0.561565E-01  0.468158E-01  0.428574E-01  0.467602E-01  0.590483E-01
  0.707015E-01  0.730156E-01  0.673221E-01  0.597083E-01  0.525873E-01  0.465017E-01
  0.417581E-01  0.384916E-01  0.368025E-01  0.368025E-01  0.384916E-01  0.417581E-01
  0.465017E-01  0.525873E-01  0.597083E-01  0.673221E-01  0.730156E-01  0.707015E-01
  0.590483E-01  0.467602E-01  0.428574E-01  0.468158E-01  0.498602E-01  0.468158E-01
  0.399559E-01  0.467602E-01  0.598007E-01  0.731390E-01  0.787991E-01  0.756636E-01
  0.690770E-01  0.623193E-01  0.560750E-01  0.507648E-01  0.466595E-01  0.439981E-01
  0.430574E-01  0.439981E-01  0.466595E-01  0.507648E-01  0.560750E-01  0.623193E-01
  0.690770E-01  0.756636E-01  0.787991E-01  0.731390E-01  0.598007E-01  0.467602E-01
  0.399559E-01  0.384997E-01  0.384997E-01  0.399559E-01  0.449539E-01  0.590483E-01
  0.731390E-01  0.808265E-01  0.803011E-01  0.755956E-01  0.700676E-01  0.644910E-01
  0.592742E-01  0.547090E-01  0.510983E-01  0.490039E-01  0.490039E-01  0.510983E-01
  0.547090E-01  0.592742E-01  0.644910E-01  0.700676E-01  0.755956E-01  0.803011E-01
  0.808265E-01  0.731390E-01  0.590483E-01  0.449539E-01  0.357593E-01  0.327448E-01
  0.357593E-01  0.449539E-01  0.576930E-01  0.707015E-01  0.787991E-01  0.803011E-01
  0.779388E-01  0.743887E-01  0.703210E-01  0.660170E-01  0.615561E-01  0.570823E-01
  0.534494E-01  0.520152E-01  0.534494E-01  0.570823E-01  0.615561E-01  0.660170E-01
  0.703210E-01  0.743887E-01  0.779388E-01  0.803011E-01  0.787991E-01  0.707015E-01
  0.576930E-01  0.449955E-01  0.374224E-01  0.374224E-01  0.449955E-01  0.576930E-01
  0.661672E-01  0.730156E-01  0.756636E-01  0.755956E-01  0.743887E-01  0.724129E-01
  0.697639E-01  0.661345E-01  0.611781E-01  0.557817E-01  0.521449E-01  0.521449E-01
  0.557817E-01  0.611781E-01  0.661345E-01  0.697639E-01  0.724129E-01  0.743887E-01
  0.755956E-01  0.756636E-01  0.730156E-01  0.661672E-01  0.565260E-01  0.481085E-01
  0.447944E-01  0.481085E-01  0.565260E-01  0.661672E-01  0.642613E-01  0.673221E-01
  0.690770E-01  0.700676E-01  0.703210E-01  0.697639E-01  0.677400E-01  0.631923E-01
  0.565548E-01  0.504607E-01  0.479924E-01  0.504607E-01  0.565548E-01  0.631923E-01
  0.677400E-01  0.697639E-01  0.703210E-01  0.700676E-01  0.690770E-01  0.673221E-01
  0.642613E-01  0.594462E-01  0.539259E-01  0.501571E-01  0.501571E-01  0.539259E-01
  0.594462E-01  0.642613E-01  0.568391E-01  0.597083E-01  0.623193E-01  0.644910E-01
  0.660170E-01  0.661345E-01  0.631923E-01  0.566811E-01  0.489653E-01  0.438097E-01
  0.438097E-01  0.489653E-01  0.566811E-01  0.631923E-01  0.661345E-01  0.660170E-01
  0.644910E-01  0.623193E-01  0.597083E-01  0.568391E-01  0.537492E-01  0.505512E-01
  0.478906E-01  0.468302E-01  0.478906E-01  0.505512E-01  0.537492E-01  0.568391E-01
  0.491214E-01  0.525873E-01  0.560750E-01  0.592742E-01  0.615561E-01  0.611781E-01
  0.565548E-01  0.489653E-01  0.421146E-01  0.393979E-01  0.421146E-01  0.489653E-01
  0.565548E-01  0.611781E-01  0.615561E-01  0.592742E-01  0.560750E-01  0.525873E-01
  0.491214E-01  0.458815E-01  0.430329E-01  0.407778E-01  0.394772E-01  0.394772E-01
  0.407778E-01  0.430329E-01  0.458815E-01  0.491214E-01  0.423896E-01  0.465017E-01
  0.507648E-01  0.547090E-01  0.570823E-01  0.557817E-01  0.504607E-01  0.438097E-01
  0.393979E-01  0.393979E-01  0.438097E-01  0.504607E-01  0.557817E-01  0.570823E-01
  0.547090E-01  0.507648E-01  0.465017E-01  0.423896E-01  0.387458E-01  0.357050E-01
  0.333508E-01  0.317999E-01  0.312538E-01  0.317999E-01  0.333508E-01  0.357050E-01
  0.387458E-01  0.423896E-01  0.370572E-01  0.417581E-01  0.466595E-01  0.510983E-01
  0.534494E-01  0.521449E-01  0.479924E-01  0.438097E-01  0.421146E-01  0.438097E-01
  0.479924E-01  0.521449E-01  0.534494E-01  0.510983E-01  0.466595E-01  0.417581E-01
  0.370572E-01  0.329330E-01  0.295680E-01  0.270062E-01  0.252348E-01  0.243092E-01
  0.243092E-01  0.252348E-01  0.270062E-01  0.295680E-01  0.329330E-01  0.370572E-01
  0.332449E-01  0.384916E-01  0.439981E-01  0.490039E-01  0.520152E-01  0.521449E-01
  0.504607E-01  0.489653E-01  0.489653E-01  0.504607E-01  0.521449E-01  0.520152E-01
  0.490039E-01  0.439981E-01  0.384916E-01  0.332449E-01  0.286498E-01  0.249171E-01
  0.220728E-01  0.200653E-01  0.188411E-01  0.184280E-01  0.188411E-01  0.200653E-01
  0.220728E-01  0.249171E-01  0.286498E-01  0.332449E-01  0.309534E-01  0.368025E-01
  0.430574E-01  0.490039E-01  0.534494E-01  0.557817E-01  0.565548E-01  0.566811E-01
  0.565548E-01  0.557817E-01  0.534494E-01  0.490039E-01  0.430574E-01  0.368025E-01
  0.309534E-01  0.258604E-01  0.217276E-01  0.185710E-01  0.163098E-01  0.148281E-01
  0.140889E-01  0.140889E-01  0.148281E-01  0.163098E-01  0.185710E-01  0.217276E-01
  0.258604E-01  0.309534E-01  0.301785E-01  0.368025E-01  0.439981E-01  0.510983E-01
  0.570823E-01  0.611781E-01  0.631923E-01  0.631923E-01  0.611781E-01  0.570823E-01
  0.510983E-01  0.439981E-01  0.368025E-01  0.301785E-01  0.244793E-01  0.198791E-01
  0.163591E-01  0.138117E-01  0.120819E-01  0.110686E-01  0.107349E-01  0.110686E-01
  0.120819E-01  0.138117E-01  0.163591E-01  0.198791E-01  0.244793E-01  0.301785E-01
  0.309534E-01  0.384916E-01  0.466595E-01  0.547090E-01  0.615561E-01  0.661345E-01
  0.677400E-01  0.661345E-01  0.615561E-01  0.547090E-01  0.466595E-01  0.384916E-01
  0.309534E-01  0.244793E-01  0.192670E-01  0.152834E-01  0.123840E-01  0.103767E-01
  0.911477E-02  0.850219E-02  0.850219E-02  0.911477E-02  0.103767E-01  0.123840E-01
  0.152834E-01  0.192670E-01  0.244793E-01  0.309534E-01  0.332449E-01  0.417581E-01
  0.507648E-01  0.592742E-01  0.660170E-01  0.697639E-01  0.697639E-01  0.660170E-01
  0.592742E-01  0.507648E-01  0.417581E-01  0.332449E-01  0.258604E-01  0.198791E-01
  0.152834E-01  0.119172E-01  0.955609E-02  0.800785E-02  0.714055E-02  0.685893E-02
  0.714055E-02  0.800785E-02  0.955609E-02  0.119172E-01  0.152834E-01  0.198791E-01
  0.258604E-01  0.332449E-01  0.370572E-01  0.465017E-01  0.560750E-01  0.644910E-01
  0.703210E-01  0.724129E-01  0.703210E-01  0.644910E-01  0.560750E-01  0.465017E-01
  0.370572E-01  0.286498E-01  0.217276E-01  0.163591E-01  0.123840E-01  0.955609E-02
  0.765175E-02  0.649388E-02  0.595322E-02  0.595322E-02  0.649388E-02  0.765175E-02
  0.955609E-02  0.123840E-01  0.163591E-01  0.217276E-01  0.286498E-01  0.370572E-01
  0.423896E-01  0.525873E-01  0.623193E-01  0.700676E-01  0.743887E-01  0.743887E-01
  0.700676E-01  0.623193E-01  0.525873E-01  0.423896E-01  0.329330E-01  0.249171E-01
  0.185710E-01  0.138117E-01  0.103767E-01  0.800785E-02  0.649388E-02  0.566228E-02
  0.540087E-02  0.566228E-02  0.649388E-02  0.800785E-02  0.103767E-01  0.138117E-01
  0.185710E-01  0.249171E-01  0.329330E-01  0.423896E-01  0.491214E-01  0.597083E-01
  0.690770E-01  0.755956E-01  0.779388E-01  0.755956E-01  0.690770E-01  0.597083E-01
  0.491214E-01  0.387458E-01  0.295680E-01  0.220728E-01  0.163098E-01  0.120819E-01
  0.911477E-02  0.714055E-02  0.595322E-02  0.540087E-02  0.540087E-02  0.595322E-02
  0.714055E-02  0.911477E-02  0.120819E-01  0.163098E-01  0.220728E-01  0.295680E-01
  0.387458E-01  0.491214E-01  0.568391E-01  0.673221E-01  0.756636E-01  0.803011E-01
  0.803011E-01  0.756636E-01  0.673221E-01  0.568391E-01  0.458815E-01  0.357050E-01
  0.270062E-01  0.200653E-01  0.148281E-01  0.110686E-01  0.850219E-02  0.685893E-02
  0.595322E-02  0.566228E-02  0.595322E-02  0.685893E-02  0.850219E-02  0.110686E-01
  0.148281E-01  0.200653E-01  0.270062E-01  0.357050E-01  0.458815E-01  0.568391E-01
  0.642613E-01  0.730156E-01  0.787991E-01  0.808265E-01  0.787991E-01  0.730156E-01
  0.642613E-01  0.537492E-01  0.430329E-01  0.333508E-01  0.252348E-01  0.188411E-01
  0.140889E-01  0.107349E-01  0.850219E-02  0.714055E-02  0.649388E-02  0.649388E-02
  0.714055E-02  0.850219E-02  0.107349E-01  0.140889E-01  0.188411E-01  0.252348E-01
  0.333508E-01  0.430329E-01  0.537492E-01  0.642613E-01  0.661672E-01  0.707015E-01
  0.731390E-01  0.731390E-01  0.707015E-01  0.661672E-01  0.594462E-01  0.505512E-01
  0.407778E-01  0.317999E-01  0.243092E-01  0.184280E-01  0.140889E-01  0.110686E-01
  0.911477E-02  0.800785E-02  0.765175E-02  0.800785E-02  0.911477E-02  0.110686E-01
  0.140889E-01  0.184280E-01  0.243092E-01  0.317999E-01  0.407778E-01  0.505512E-01
  0.594462E-01  0.661672E-01  0.576930E-01  0.590483E-01  0.598007E-01  0.590483E-01
  0.576930E-01  0.565260E-01  0.539259E-01  0.478906E-01  0.394772E-01  0.312538E-01
  0.243092E-01  0.188411E-01  0.148281E-01  0.120819E-01  0.103767E-01  0.955609E-02
  0.955609E-02  0.103767E-01  0.120819E-01  0.148281E-01  0.188411E-01  0.243092E-01
  0.312538E-01  0.394772E-01  0.478906E-01  0.539259E-01  0.565260E-01  0.576930E-01
  0.449539E-01  0.467602E-01  0.467602E-01  0.449539E-01  0.449955E-01  0.481085E-01
  0.501571E-01  0.468302E-01  0.394772E-01  0.317999E-01  0.252348E-01  0.200653E-01
  0.163098E-01  0.138117E-01  0.123840E-01  0.119172E-01  0.123840E-01  0.138117E-01
  0.163098E-01  0.200653E-01  0.252348E-01  0.317999E-01  0.394772E-01  0.468302E-01
  0.501571E-01  0.481085E-01  0.449955E-01  0.449539E-01  0.399559E-01  0.428574E-01
  0.399559E-01  0.357593E-01  0.374224E-01  0.447944E-01  0.501571E-01  0.478906E-01
  0.407778E-01  0.333508E-01  0.270062E-01  0.220728E-01  0.185710E-01  0.163591E-01
  0.152834E-01  0.152834E-01  0.163591E-01  0.185710E-01  0.220728E-01  0.270062E-01
  0.333508E-01  0.407778E-01  0.478906E-01  0.501571E-01  0.447944E-01  0.374224E-01
  0.357593E-01  0.399559E-01  0.468158E-01  0.468158E-01  0.384997E-01  0.327448E-01
  0.374224E-01  0.481085E-01  0.539259E-01  0.505512E-01  0.430329E-01  0.357050E-01
  0.295680E-01  0.249171E-01  0.217276E-01  0.198791E-01  0.192670E-01  0.198791E-01
  0.217276E-01  0.249171E-01  0.295680E-01  0.357050E-01  0.430329E-01  0.505512E-01
  0.539259E-01  0.481085E-01  0.374224E-01  0.327448E-01  0.384997E-01  0.468158E-01
  0.561565E-01  0.498602E-01  0.384997E-01  0.357593E-01  0.449955E-01  0.565260E-01
  0.594462E-01  0.537492E-01  0.458815E-01  0.387458E-01  0.329330E-01  0.286498E-01
  0.258604E-01  0.244793E-01  0.244793E-01  0.258604E-01  0.286498E-01  0.329330E-01
  0.387458E-01  0.458815E-01  0.537492E-01  0.594462E-01  0.565260E-01  0.449955E-01
  0.357593E-01  0.384997E-01  0.498602E-01  0.561565E-01  0.561565E-01  0.468158E-01
  0.399559E-01  0.449539E-01  0.576930E-01  0.661672E-01  0.642613E-01  0.568391E-01
  0.491214E-01  0.423896E-01  0.370572E-01  0.332449E-01  0.309534E-01  0.301785E-01
  0.309534E-01  0.332449E-01  0.370572E-01  0.423896E-01  0.491214E-01  0.568391E-01
  0.642613E-01  0.661672E-01  0.576930E-01  0.449539E-01  0.399559E-01  0.468158E-01
  0.561565E-01  0.561565E-01  0.414701E-01  0.399559E-01  0.459184E-01  0.587946E-01
  0.698108E-01  0.713744E-01  0.655427E-01  0.580967E-01  0.511597E-01  0.452506E-01
  0.406576E-01  0.374973E-01  0.358614E-01  0.358614E-01  0.374973E-01  0.406576E-01
  0.452506E-01  0.511597E-01  0.580967E-01  0.655427E-01  0.713744E-01  0.698108E-01
  0.587946E-01  0.459184E-01  0.399559E-01  0.414701E-01  0.434404E-01  0.414701E-01
  0.399559E-01  0.467602E-01  0.598007E-01  0.731390E-01  0.787991E-01  0.756636E-01
  0.690770E-01  0.623193E-01  0.560750E-01  0.507648E-01  0.466595E-01  0.439981E-01
  0.430574E-01  0.439981E-01  0.466595E-01  0.507648E-01  0.560750E-01  0.623193E-01
  0.690770E-01  0.756636E-01  0.787991E-01  0.731390E-01  0.598007E-01  0.467602E-01
  0.399559E-01  0.384997E-01  0.384997E-01  0.399559E-01  0.459184E-01  0.598007E-01
  0.743422E-01  0.827874E-01  0.826511E-01  0.778841E-01  0.721822E-01  0.664213E-01
  0.610130E-01  0.562544E-01  0.524649E-01  0.502557E-01  0.502557E-01  0.524649E-01
  0.562544E-01  0.610130E-01  0.664213E-01  0.721822E-01  0.778841E-01  0.826511E-01
  0.827874E-01  0.743422E-01  0.598007E-01  0.459184E-01  0.372947E-01  0.345801E-01
  0.372947E-01  0.459184E-01  0.587946E-01  0.731390E-01  0.827874E-01  0.851493E-01
  0.828195E-01  0.790310E-01  0.746866E-01  0.700389E-01  0.650943E-01  0.600009E-01
  0.558148E-01  0.541557E-01  0.558148E-01  0.600009E-01  0.650943E-01  0.700389E-01
  0.746866E-01  0.790310E-01  0.828195E-01  0.851493E-01  0.827874E-01  0.731390E-01
  0.587946E-01  0.454654E-01  0.377571E-01  0.377571E-01  0.454654E-01  0.587946E-01
  0.698108E-01  0.787991E-01  0.826511E-01  0.828195E-01  0.814913E-01  0.793100E-01
  0.762860E-01  0.718356E-01  0.655255E-01  0.586754E-01  0.541080E-01  0.541080E-01
  0.586754E-01  0.655255E-01  0.718356E-01  0.762860E-01  0.793100E-01  0.814913E-01
  0.828195E-01  0.826511E-01  0.787991E-01  0.698108E-01  0.579739E-01  0.480634E-01
  0.442380E-01  0.480634E-01  0.579739E-01  0.698108E-01  0.713744E-01  0.756636E-01
  0.778841E-01  0.790310E-01  0.793100E-01  0.785234E-01  0.754662E-01  0.687675E-01
  0.595239E-01  0.514017E-01  0.481834E-01  0.514017E-01  0.595239E-01  0.687675E-01
  0.754662E-01  0.785234E-01  0.793100E-01  0.790310E-01  0.778841E-01  0.756636E-01
  0.713744E-01  0.645236E-01  0.568747E-01  0.517743E-01  0.517743E-01  0.568747E-01
  0.645236E-01  0.713744E-01  0.655427E-01  0.690770E-01  0.721822E-01  0.746866E-01
  0.762860E-01  0.754662E-01  0.698311E-01  0.596240E-01  0.487168E-01  0.418238E-01
  0.418238E-01  0.487168E-01  0.596240E-01  0.698311E-01  0.754662E-01  0.762860E-01
  0.746866E-01  0.721822E-01  0.690770E-01  0.655427E-01  0.614529E-01  0.569155E-01
  0.530263E-01  0.514631E-01  0.530263E-01  0.569155E-01  0.614529E-01  0.655427E-01
  0.580967E-01  0.623193E-01  0.664213E-01  0.700389E-01  0.718356E-01  0.687675E-01
  0.596240E-01  0.476916E-01  0.381053E-01  0.345080E-01  0.381053E-01  0.476916E-01
  0.596240E-01  0.687675E-01  0.718356E-01  0.700389E-01  0.664213E-01  0.623193E-01
  0.580967E-01  0.540606E-01  0.504175E-01  0.474364E-01  0.456662E-01  0.456662E-01
  0.474364E-01  0.504175E-01  0.540606E-01  0.580967E-01  0.511597E-01  0.560750E-01
  0.610130E-01  0.650943E-01  0.655255E-01  0.595239E-01  0.487168E-01  0.381053E-01
  0.318856E-01  0.318856E-01  0.381053E-01  0.487168E-01  0.595239E-01  0.655255E-01
  0.650943E-01  0.610130E-01  0.560750E-01  0.511597E-01  0.466618E-01  0.428253E-01
  0.398207E-01  0.378306E-01  0.371228E-01  0.378306E-01  0.398207E-01  0.428253E-01
  0.466618E-01  0.511597E-01  0.452506E-01  0.507648E-01  0.562544E-01  0.600009E-01
  0.586754E-01  0.514017E-01  0.418238E-01  0.345080E-01  0.318856E-01  0.345080E-01
  0.418238E-01  0.514017E-01  0.586754E-01  0.600009E-01  0.562544E-01  0.507648E-01
  0.452506E-01  0.402489E-01  0.360804E-01  0.328570E-01  0.306136E-01  0.294352E-01
  0.294352E-01  0.306136E-01  0.328570E-01  0.360804E-01  0.402489E-01  0.452506E-01
  0.406576E-01  0.466595E-01  0.524649E-01  0.558148E-01  0.541080E-01  0.481834E-01
  0.418238E-01  0.381053E-01  0.381053E-01  0.418238E-01  0.481834E-01  0.541080E-01
  0.558148E-01  0.524649E-01  0.466595E-01  0.406576E-01  0.351996E-01  0.306480E-01
  0.271307E-01  0.246347E-01  0.231109E-01  0.225946E-01  0.231109E-01  0.246347E-01
  0.271307E-01  0.306480E-01  0.351996E-01  0.406576E-01  0.374973E-01  0.439981E-01
  0.502557E-01  0.541557E-01  0.541080E-01  0.514017E-01  0.487168E-01  0.476916E-01
  0.487168E-01  0.514017E-01  0.541080E-01  0.541557E-01  0.502557E-01  0.439981E-01
  0.374973E-01  0.316023E-01  0.266700E-01  0.228398E-01  0.200743E-01  0.182646E-01
  0.173565E-01  0.173565E-01  0.182646E-01  0.200743E-01  0.228398E-01  0.266700E-01
  0.316023E-01  0.374973E-01  0.358614E-01  0.430574E-01  0.502557E-01  0.558148E-01
  0.586754E-01  0.595239E-01  0.596240E-01  0.596240E-01  0.595239E-01  0.586754E-01
  0.558148E-01  0.502557E-01  0.430574E-01  0.358614E-01  0.294406E-01  0.240859E-01
  0.199156E-01  0.168662E-01  0.147956E-01  0.135755E-01  0.131740E-01  0.135755E-01
  0.147956E-01  0.168662E-01  0.199156E-01  0.240859E-01  0.294406E-01  0.358614E-01
  0.358614E-01  0.439981E-01  0.524649E-01  0.600009E-01  0.655255E-01  0.687675E-01
  0.698311E-01  0.687675E-01  0.655255E-01  0.600009E-01  0.524649E-01  0.439981E-01
  0.358614E-01  0.287096E-01  0.228050E-01  0.182184E-01  0.148427E-01  0.125036E-01
  0.110178E-01  0.102917E-01  0.102917E-01  0.110178E-01  0.125036E-01  0.148427E-01
  0.182184E-01  0.228050E-01  0.287096E-01  0.358614E-01  0.374973E-01  0.466595E-01
  0.562544E-01  0.650943E-01  0.718356E-01  0.754662E-01  0.754662E-01  0.718356E-01
  0.650943E-01  0.562544E-01  0.466595E-01  0.374973E-01  0.294406E-01  0.228050E-01
  0.176551E-01  0.138551E-01  0.111884E-01  0.943332E-02  0.843466E-02  0.810802E-02
  0.843466E-02  0.943332E-02  0.111884E-01  0.138551E-01  0.176551E-01  0.228050E-01
  0.294406E-01  0.374973E-01  0.406576E-01  0.507648E-01  0.610130E-01  0.700389E-01
  0.762860E-01  0.785234E-01  0.762860E-01  0.700389E-01  0.610130E-01  0.507648E-01
  0.406576E-01  0.316023E-01  0.240859E-01  0.182184E-01  0.138551E-01  0.107603E-01
  0.867092E-02  0.739133E-02  0.678572E-02  0.678572E-02  0.739133E-02  0.867092E-02
  0.107603E-01  0.138551E-01  0.182184E-01  0.240859E-01  0.316023E-01  0.406576E-01
  0.452506E-01  0.560750E-01  0.664213E-01  0.746866E-01  0.793100E-01  0.793100E-01
  0.746866E-01  0.664213E-01  0.560750E-01  0.452506E-01  0.351996E-01  0.266700E-01
  0.199156E-01  0.148427E-01  0.111884E-01  0.867092E-02  0.705496E-02  0.616483E-02
  0.588281E-02  0.616483E-02  0.705496E-02  0.867092E-02  0.111884E-01  0.148427E-01
  0.199156E-01  0.266700E-01  0.351996E-01  0.452506E-01  0.511597E-01  0.623193E-01
  0.721822E-01  0.790310E-01  0.814913E-01  0.790310E-01  0.721822E-01  0.623193E-01
  0.511597E-01  0.402489E-01  0.306480E-01  0.228398E-01  0.168662E-01  0.125036E-01
  0.943332E-02  0.739133E-02  0.616483E-02  0.559607E-02  0.559607E-02  0.616483E-02
  0.739133E-02  0.943332E-02  0.125036E-01  0.168662E-01  0.228398E-01  0.306480E-01
  0.402489E-01  0.511597E-01  0.580967E-01  0.690770E-01  0.778841E-01  0.828195E-01