
     Program POST-PROC v.6.1 (svn rev. 13369) starts on  9Sep2018 at  9:36: 8 

     This program is part of the open-source Quantum ESPRESSO suite
     for quantum simulation of materials; please cite
         "P. Giannozzi et al., J. Phys.:Condens. Matter 21 395502 (2009);
          URL http://www.quantum-espresso.org", 
     in publications or presentations arising from this work. More details at
     http://www.quantum-espresso.org/quote

     Parallel version (MPI), running on     1 processors
     Reading header from file  Si.charge

   Info: using nr1, nr2, nr3 values from input
     Reading data from file  Si.charge

     Writing data to be plotted to file Si.charge.2D.xsf
 
     G-vector sticks info
     --------------------
     sticks:   dense  smooth     PW     G-vecs:    dense   smooth      PW
     Sum         511     511      1                 7631     7631       1
 
     Min, Max, imaginary charge:     0.003280    0.085946    0.000000
     Plot Type: 2D contour             Output format: XCrySDen     
 
     POST-PROC    :     0.05s CPU         0.05s WALL

 
   This run was terminated on:   9:36: 8   9Sep2018            

=------------------------------------------------------------------------------=
   JOB DONE.
=------------------------------------------------------------------------------=
