
     Program PWSCF v.6.1 (svn rev. 13369) starts on  9Sep2018 at  8:17: 7 

     This program is part of the open-source Quantum ESPRESSO suite
     for quantum simulation of materials; please cite
         "P. Giannozzi et al., J. Phys.:Condens. Matter 21 395502 (2009);
          URL http://www.quantum-espresso.org", 
     in publications or presentations arising from this work. More details at
     http://www.quantum-espresso.org/quote

     Parallel version (MPI), running on     1 processors
     Waiting for input...
     Reading input from standard input

     Current dimensions of program PWSCF are:
     Max number of different atomic species (ntypx) = 10
     Max number of k-points (npk) =  40000
     Max angular momentum in pseudopotentials (lmaxx) =  3
               file Si.pbe-n-kjpaw_psl.0.1.UPF: wavefunction(s)  3S renormalized

     Subspace diagonalization in iterative solution of the eigenvalue problem:
     a serial algorithm will be used

 
     G-vector sticks info
     --------------------
     sticks:   dense  smooth     PW     G-vecs:    dense   smooth      PW
     Sum         511     511    163                 7631     7631    1411
 


     bravais-lattice index     =            2
     lattice parameter (alat)  =      10.2623  a.u.
     unit-cell volume          =     270.1967 (a.u.)^3
     number of atoms/cell      =            2
     number of atomic types    =            1
     number of electrons       =         8.00
     number of Kohn-Sham states=            8
     kinetic-energy cutoff     =      35.0000  Ry
     charge density cutoff     =     140.0000  Ry
     convergence threshold     =      1.0E-06
     mixing beta               =       0.7000
     number of iterations used =            8  plain     mixing
     Exchange-correlation      =  SLA  PW   PBX  PBC ( 1  4  3  4 0 0)

     celldm(1)=  10.262347  celldm(2)=   0.000000  celldm(3)=   0.000000
     celldm(4)=   0.000000  celldm(5)=   0.000000  celldm(6)=   0.000000

     crystal axes: (cart. coord. in units of alat)
               a(1) = (  -0.500000   0.000000   0.500000 )  
               a(2) = (   0.000000   0.500000   0.500000 )  
               a(3) = (  -0.500000   0.500000   0.000000 )  

     reciprocal axes: (cart. coord. in units 2 pi/alat)
               b(1) = ( -1.000000 -1.000000  1.000000 )  
               b(2) = (  1.000000  1.000000  1.000000 )  
               b(3) = ( -1.000000  1.000000 -1.000000 )  


     PseudoPot. # 1 for Si read from file:
     /opt/home/guest1/upf_files/Si.pbe-n-kjpaw_psl.0.1.UPF
     MD5 check sum: b9d333a40e496bef61db012f150758bf
     Pseudo is Projector augmented-wave + core cor, Zval =  4.0
     Generated using "atomic" code by A. Dal Corso  v.5.0.2 svn rev. 9415
     Shape of augmentation charge: PSQ
     Using radial grid of 1141 points,  4 beta functions with: 
                l(1) =   0
                l(2) =   0
                l(3) =   1
                l(4) =   1
     Q(r) pseudized with 0 coefficients 


     atomic species   valence    mass     pseudopotential
        Si             4.00    28.08550     Si( 1.00)

     24 Sym. Ops. (no inversion) found
          (note: 24 additional sym.ops. were found but ignored
           their fractional translations are incommensurate with FFT grid)


   Cartesian axes

     site n.     atom                  positions (alat units)
         1           Si  tau(   1) = (   0.0000000   0.0000000   0.0000000  )
         2           Si  tau(   2) = (  -0.2500000   0.2500000   0.2500000  )

     number of k points=    19  Fermi-Dirac smearing, width (Ry)=  0.0036
                       cart. coord. in units 2pi/alat
        k(    1) = (  -0.1000000   0.1000000   0.1000000), wk =   0.0320000
        k(    2) = (  -0.3000000   0.3000000  -0.1000000), wk =   0.0960000
        k(    3) = (   0.5000000  -0.5000000   0.7000000), wk =   0.0960000
        k(    4) = (   0.3000000  -0.3000000   0.5000000), wk =   0.0960000
        k(    5) = (   0.1000000  -0.1000000   0.3000000), wk =   0.0960000
        k(    6) = (  -0.1000000   0.5000000   0.1000000), wk =   0.0960000
        k(    7) = (   0.7000000  -0.3000000   0.9000000), wk =   0.1920000
        k(    8) = (   0.5000000  -0.1000000   0.7000000), wk =   0.1920000
        k(    9) = (   0.3000000   0.1000000   0.5000000), wk =   0.1920000
        k(   10) = (  -0.1000000  -1.1000000   0.1000000), wk =   0.0960000
        k(   11) = (  -0.3000000  -0.9000000  -0.1000000), wk =   0.1920000
        k(   12) = (  -0.5000000  -0.7000000  -0.3000000), wk =   0.0960000
        k(   13) = (  -0.1000000  -0.7000000   0.1000000), wk =   0.0960000
        k(   14) = (  -0.3000000   0.3000000   0.3000000), wk =   0.0320000
        k(   15) = (   0.5000000  -0.5000000   1.1000000), wk =   0.0960000
        k(   16) = (   0.3000000  -0.3000000   0.9000000), wk =   0.0960000
        k(   17) = (  -0.3000000  -1.3000000   0.3000000), wk =   0.0960000
        k(   18) = (  -0.5000000  -1.1000000   0.1000000), wk =   0.0960000
        k(   19) = (   0.5000000  -0.5000000  -0.5000000), wk =   0.0160000

     Dense  grid:     7631 G-vectors     FFT dimensions: (  27,  27,  27)

     Estimated max dynamical RAM per process >       7.90MB

     Check: negative/imaginary core charge=   -0.000003    0.000000

     Initial potential from superposition of free atoms

     starting charge    7.99888, renormalised to    8.00000
     Starting wfc are    8 randomized atomic wfcs
     Checking if some PAW data can be deallocated... 

     total cpu time spent up to now is        0.5 secs

     per-process dynamical memory:    43.0 Mb

     Self-consistent Calculation

     iteration #  1     ecut=    35.00 Ry     beta=0.70
     Davidson diagonalization with overlap
     ethr =  1.00E-02,  avg # of iterations =  3.6

     Threshold (ethr) on eigenvalues was too large:
     Diagonalizing with lowered threshold

     Davidson diagonalization with overlap
     ethr =  7.29E-04,  avg # of iterations =  1.0

     total cpu time spent up to now is        1.2 secs

     total energy              =     -93.45135605 Ry
     Harris-Foulkes estimate   =     -93.46536478 Ry
     estimated scf accuracy    <       0.05766882 Ry

     iteration #  2     ecut=    35.00 Ry     beta=0.70
     Davidson diagonalization with overlap
     ethr =  7.21E-04,  avg # of iterations =  1.0

     total cpu time spent up to now is        1.5 secs

     total energy              =     -93.45385694 Ry
     Harris-Foulkes estimate   =     -93.45393833 Ry
     estimated scf accuracy    <       0.00211230 Ry

     iteration #  3     ecut=    35.00 Ry     beta=0.70
     Davidson diagonalization with overlap
     ethr =  2.64E-05,  avg # of iterations =  2.6

     total cpu time spent up to now is        1.8 secs

     total energy              =     -93.45393919 Ry
     Harris-Foulkes estimate   =     -93.45393599 Ry
     estimated scf accuracy    <       0.00005193 Ry

     iteration #  4     ecut=    35.00 Ry     beta=0.70
     Davidson diagonalization with overlap
     ethr =  6.49E-07,  avg # of iterations =  2.8

     total cpu time spent up to now is        2.2 secs

     End of self-consistent calculation

          k =-0.1000 0.1000 0.1000 (   938 PWs)   bands (ev):

    -5.6256   5.0641   6.0120   6.0120   8.7825   9.0682   9.0682  10.4836

          k =-0.3000 0.3000-0.1000 (   940 PWs)   bands (ev):

    -4.9423   2.5668   4.4402   5.7061   8.9345   9.5856   9.9224  12.1730

          k = 0.5000-0.5000 0.7000 (   942 PWs)   bands (ev):

    -3.5361  -0.3667   4.1047   4.9644   8.4193   9.6590   9.9002  14.2681

          k = 0.3000-0.3000 0.5000 (   942 PWs)   bands (ev):

    -4.0101   0.4223   4.5238   4.7316   8.4435   9.5590  10.3228  12.6037

          k = 0.1000-0.1000 0.3000 (   937 PWs)   bands (ev):

    -5.2788   3.7578   5.1985   5.3696   8.4555   9.6185  10.2212  11.1955

          k =-0.1000 0.5000 0.1000 (   944 PWs)   bands (ev):

    -4.5943   2.3382   4.2143   4.3734   7.7708   9.6655  11.3673  11.6988

          k = 0.7000-0.3000 0.9000 (   941 PWs)   bands (ev):

    -3.3352   0.3347   2.7832   3.7954   8.3711   9.9703  11.0362  13.1486

          k = 0.5000-0.1000 0.7000 (   946 PWs)   bands (ev):

    -2.8862  -0.2691   2.2239   3.9800   8.8961  10.3244  12.1612  12.9422

          k = 0.3000 0.1000 0.5000 (   947 PWs)   bands (ev):

    -4.2830   1.4256   3.5402   4.8634   8.9115   9.8251  10.9283  11.3369

          k =-0.1000-1.1000 0.1000 (   958 PWs)   bands (ev):

    -2.3126  -0.8104   2.9286   3.4662   7.0273   7.7856  14.9667  15.0650

          k =-0.3000-0.9000-0.1000 (   947 PWs)   bands (ev):

    -2.1848  -0.8302   2.2886   3.2266   8.0478   9.4941  12.5624  14.3487

          k =-0.5000-0.7000-0.3000 (   950 PWs)   bands (ev):

    -3.0760  -0.6162   3.2490   4.3750   8.9929   9.3121  11.2301  14.0728

          k =-0.1000-0.7000 0.1000 (   945 PWs)   bands (ev):

    -3.5926   0.7871   3.3536   3.7751   7.2612   8.4568  13.1649  13.2845

          k =-0.3000 0.3000 0.3000 (   941 PWs)   bands (ev):

    -4.6227   1.4134   5.2956   5.2956   8.0645   9.7474   9.7474  13.8371

          k = 0.5000-0.5000 1.1000 (   947 PWs)   bands (ev):

    -3.6879   0.4941   2.7559   4.8937   8.6670  10.7451  10.8223  12.9228

          k = 0.3000-0.3000 0.9000 (   953 PWs)   bands (ev):

    -2.4220  -0.6958   1.9703   3.9975   7.6740  11.3977  12.6308  12.8265

          k =-0.3000-1.3000 0.3000 (   942 PWs)   bands (ev):

    -3.1866  -0.2851   3.0755   4.2575   8.0514  10.9120  11.3197  11.8598

          k =-0.5000-1.1000 0.1000 (   938 PWs)   bands (ev):

    -2.0910  -0.8627   2.0721   2.9661   9.8840  10.2000  11.6124  12.0518

          k = 0.5000-0.5000-0.5000 (   960 PWs)   bands (ev):

    -3.4231  -0.7620   5.0112   5.0112   7.7428   9.5544   9.5544  13.9372

     the Fermi energy is     6.5095 ev

!    total energy              =     -93.45395035 Ry
     Harris-Foulkes estimate   =     -93.45395027 Ry
     estimated scf accuracy    <       0.00000014 Ry

     total all-electron energy =     -1160.145686 Ry

     The total energy is the sum of the following terms:

     one-electron contribution =       5.73572327 Ry
     hartree contribution      =       1.09760892 Ry
     xc contribution           =     -12.25556042 Ry
     ewald contribution        =     -16.79708772 Ry
     one-center paw contrib.   =     -71.23463419 Ry
     smearing contrib. (-TS)   =      -0.00000020 Ry

     convergence has been achieved in   4 iterations

     Writing output data file SCF.save
 
     init_run     :      0.33s CPU      0.35s WALL (       1 calls)
     electrons    :      1.62s CPU      1.65s WALL (       1 calls)

     Called by init_run:
     wfcinit      :      0.08s CPU      0.09s WALL (       1 calls)
     potinit      :      0.08s CPU      0.09s WALL (       1 calls)

     Called by electrons:
     c_bands      :      1.05s CPU      1.07s WALL (       5 calls)
     sum_band     :      0.23s CPU      0.24s WALL (       5 calls)
     v_of_rho     :      0.04s CPU      0.04s WALL (       5 calls)
     newd         :      0.01s CPU      0.02s WALL (       5 calls)
     PAW_pot      :      0.36s CPU      0.37s WALL (       5 calls)
     mix_rho      :      0.00s CPU      0.00s WALL (       5 calls)

     Called by c_bands:
     init_us_2    :      0.03s CPU      0.03s WALL (     209 calls)
     cegterg      :      0.98s CPU      1.00s WALL (      95 calls)

     Called by sum_band:
     sum_band:bec :      0.00s CPU      0.00s WALL (      95 calls)
     addusdens    :      0.02s CPU      0.02s WALL (       5 calls)

     Called by *egterg:
     h_psi        :      0.92s CPU      0.94s WALL (     323 calls)
     s_psi        :      0.02s CPU      0.02s WALL (     323 calls)
     g_psi        :      0.01s CPU      0.01s WALL (     209 calls)
     cdiaghg      :      0.04s CPU      0.04s WALL (     285 calls)

     Called by h_psi:
     h_psi:pot    :      0.92s CPU      0.94s WALL (     323 calls)
     h_psi:calbec :      0.02s CPU      0.02s WALL (     323 calls)
     vloc_psi     :      0.88s CPU      0.90s WALL (     323 calls)
     add_vuspsi   :      0.02s CPU      0.02s WALL (     323 calls)

     General routines
     calbec       :      0.03s CPU      0.02s WALL (     418 calls)
     fft          :      0.02s CPU      0.02s WALL (      67 calls)
     fftw         :      0.95s CPU      0.96s WALL (    4836 calls)
     davcio       :      0.00s CPU      0.01s WALL (      19 calls)
 
     Parallel routines
     fft_scatter  :      0.10s CPU      0.10s WALL (    4903 calls)
 
     PWSCF        :     2.20s CPU         2.27s WALL

 
   This run was terminated on:   8:17: 9   9Sep2018            

=------------------------------------------------------------------------------=
   JOB DONE.
=------------------------------------------------------------------------------=
