
     Program PWSCF v.6.1 (svn rev. 13369) starts on  9Sep2018 at  8:17:12 

     This program is part of the open-source Quantum ESPRESSO suite
     for quantum simulation of materials; please cite
         "P. Giannozzi et al., J. Phys.:Condens. Matter 21 395502 (2009);
          URL http://www.quantum-espresso.org", 
     in publications or presentations arising from this work. More details at
     http://www.quantum-espresso.org/quote

     Parallel version (MPI), running on     1 processors
     Waiting for input...
     Reading input from standard input

     Current dimensions of program PWSCF are:
     Max number of different atomic species (ntypx) = 10
     Max number of k-points (npk) =  40000
     Max angular momentum in pseudopotentials (lmaxx) =  3
               file Si.pbe-n-kjpaw_psl.0.1.UPF: wavefunction(s)  3S renormalized

     Subspace diagonalization in iterative solution of the eigenvalue problem:
     a serial algorithm will be used

 
     G-vector sticks info
     --------------------
     sticks:   dense  smooth     PW     G-vecs:    dense   smooth      PW
     Sum         511     511    163                 7631     7631    1459
 


     bravais-lattice index     =            2
     lattice parameter (alat)  =      10.2623  a.u.
     unit-cell volume          =     270.1967 (a.u.)^3
     number of atoms/cell      =            2
     number of atomic types    =            1
     number of electrons       =         8.00
     number of Kohn-Sham states=            8
     kinetic-energy cutoff     =      35.0000  Ry
     charge density cutoff     =     140.0000  Ry
     convergence threshold     =      1.0E-06
     mixing beta               =       0.7000
     number of iterations used =            8  plain     mixing
     Exchange-correlation      =  SLA  PW   PBX  PBC ( 1  4  3  4 0 0)

     celldm(1)=  10.262347  celldm(2)=   0.000000  celldm(3)=   0.000000
     celldm(4)=   0.000000  celldm(5)=   0.000000  celldm(6)=   0.000000

     crystal axes: (cart. coord. in units of alat)
               a(1) = (  -0.500000   0.000000   0.500000 )  
               a(2) = (   0.000000   0.500000   0.500000 )  
               a(3) = (  -0.500000   0.500000   0.000000 )  

     reciprocal axes: (cart. coord. in units 2 pi/alat)
               b(1) = ( -1.000000 -1.000000  1.000000 )  
               b(2) = (  1.000000  1.000000  1.000000 )  
               b(3) = ( -1.000000  1.000000 -1.000000 )  


     PseudoPot. # 1 for Si read from file:
     /opt/home/guest1/upf_files/Si.pbe-n-kjpaw_psl.0.1.UPF
     MD5 check sum: b9d333a40e496bef61db012f150758bf
     Pseudo is Projector augmented-wave + core cor, Zval =  4.0
     Generated using "atomic" code by A. Dal Corso  v.5.0.2 svn rev. 9415
     Shape of augmentation charge: PSQ
     Using radial grid of 1141 points,  4 beta functions with: 
                l(1) =   0
                l(2) =   0
                l(3) =   1
                l(4) =   1
     Q(r) pseudized with 0 coefficients 


     atomic species   valence    mass     pseudopotential
        Si             4.00    28.08550     Si( 1.00)

     24 Sym. Ops. (no inversion) found
          (note: 24 additional sym.ops. were found but ignored
           their fractional translations are incommensurate with FFT grid)


   Cartesian axes

     site n.     atom                  positions (alat units)
         1           Si  tau(   1) = (   0.0000000   0.0000000   0.0000000  )
         2           Si  tau(   2) = (  -0.2500000   0.2500000   0.2500000  )

     number of k points=    44  Fermi-Dirac smearing, width (Ry)=  0.0036
                       cart. coord. in units 2pi/alat
        k(    1) = (  -0.0714286   0.0714286   0.0714286), wk =   0.0116618
        k(    2) = (  -0.2142857   0.2142857  -0.0714286), wk =   0.0349854
        k(    3) = (  -0.3571429   0.3571429  -0.2142857), wk =   0.0349854
        k(    4) = (   0.5000000  -0.5000000   0.6428571), wk =   0.0349854
        k(    5) = (   0.3571429  -0.3571429   0.5000000), wk =   0.0349854
        k(    6) = (   0.2142857  -0.2142857   0.3571429), wk =   0.0349854
        k(    7) = (   0.0714286  -0.0714286   0.2142857), wk =   0.0349854
        k(    8) = (  -0.0714286   0.3571429   0.0714286), wk =   0.0349854
        k(    9) = (  -0.2142857   0.5000000  -0.0714286), wk =   0.0699708
        k(   10) = (   0.6428571  -0.3571429   0.7857143), wk =   0.0699708
        k(   11) = (   0.5000000  -0.2142857   0.6428571), wk =   0.0699708
        k(   12) = (   0.3571429  -0.0714286   0.5000000), wk =   0.0699708
        k(   13) = (   0.2142857   0.0714286   0.3571429), wk =   0.0699708
        k(   14) = (  -0.0714286   0.6428571   0.0714286), wk =   0.0349854
        k(   15) = (   0.7857143  -0.2142857   0.9285714), wk =   0.0699708
        k(   16) = (   0.6428571  -0.0714286   0.7857143), wk =   0.0699708
        k(   17) = (   0.5000000   0.0714286   0.6428571), wk =   0.0699708
        k(   18) = (   0.3571429   0.2142857   0.5000000), wk =   0.0699708
        k(   19) = (  -0.0714286  -1.0714286   0.0714286), wk =   0.0349854
        k(   20) = (  -0.2142857  -0.9285714  -0.0714286), wk =   0.0699708
        k(   21) = (  -0.3571429  -0.7857143  -0.2142857), wk =   0.0699708
        k(   22) = (  -0.5000000  -0.6428571  -0.3571429), wk =   0.0349854
        k(   23) = (  -0.0714286  -0.7857143   0.0714286), wk =   0.0349854
        k(   24) = (  -0.2142857  -0.6428571  -0.0714286), wk =   0.0699708
        k(   25) = (  -0.0714286  -0.5000000   0.0714286), wk =   0.0349854
        k(   26) = (  -0.2142857   0.2142857   0.2142857), wk =   0.0116618
        k(   27) = (  -0.3571429   0.3571429   0.0714286), wk =   0.0349854
        k(   28) = (   0.5000000  -0.5000000   0.9285714), wk =   0.0349854
        k(   29) = (   0.3571429  -0.3571429   0.7857143), wk =   0.0349854
        k(   30) = (   0.2142857  -0.2142857   0.6428571), wk =   0.0349854
        k(   31) = (  -0.2142857   0.5000000   0.2142857), wk =   0.0349854
        k(   32) = (   0.6428571  -0.3571429   1.0714286), wk =   0.0699708
        k(   33) = (   0.5000000  -0.2142857   0.9285714), wk =   0.0699708
        k(   34) = (   0.3571429  -0.0714286   0.7857143), wk =   0.0699708
        k(   35) = (  -0.2142857  -1.2142857   0.2142857), wk =   0.0349854
        k(   36) = (  -0.3571429  -1.0714286   0.0714286), wk =   0.0699708
        k(   37) = (  -0.5000000  -0.9285714  -0.0714286), wk =   0.0349854
        k(   38) = (  -0.2142857  -0.9285714   0.2142857), wk =   0.0349854
        k(   39) = (  -0.3571429   0.3571429   0.3571429), wk =   0.0116618
        k(   40) = (   0.5000000  -0.5000000   1.2142857), wk =   0.0349854
        k(   41) = (   0.3571429  -0.3571429   1.0714286), wk =   0.0349854
        k(   42) = (  -0.3571429  -1.3571429   0.3571429), wk =   0.0349854
        k(   43) = (  -0.5000000  -1.2142857   0.2142857), wk =   0.0349854
        k(   44) = (   0.5000000  -0.5000000  -0.5000000), wk =   0.0058309

     Dense  grid:     7631 G-vectors     FFT dimensions: (  27,  27,  27)

     Estimated max dynamical RAM per process >      10.79MB

     Check: negative/imaginary core charge=   -0.000003    0.000000

     Initial potential from superposition of free atoms

     starting charge    7.99888, renormalised to    8.00000
     Starting wfc are    8 randomized atomic wfcs
     Checking if some PAW data can be deallocated... 

     total cpu time spent up to now is        0.7 secs

     per-process dynamical memory:    45.9 Mb

     Self-consistent Calculation

     iteration #  1     ecut=    35.00 Ry     beta=0.70
     Davidson diagonalization with overlap
     ethr =  1.00E-02,  avg # of iterations =  3.7

     Threshold (ethr) on eigenvalues was too large:
     Diagonalizing with lowered threshold

     Davidson diagonalization with overlap
     ethr =  7.29E-04,  avg # of iterations =  1.0

     total cpu time spent up to now is        2.0 secs

     total energy              =     -93.45139228 Ry
     Harris-Foulkes estimate   =     -93.46538864 Ry
     estimated scf accuracy    <       0.05762879 Ry

     iteration #  2     ecut=    35.00 Ry     beta=0.70
     Davidson diagonalization with overlap
     ethr =  7.20E-04,  avg # of iterations =  1.0

     total cpu time spent up to now is        2.6 secs

     total energy              =     -93.45388857 Ry
     Harris-Foulkes estimate   =     -93.45396983 Ry
     estimated scf accuracy    <       0.00211209 Ry

     iteration #  3     ecut=    35.00 Ry     beta=0.70
     Davidson diagonalization with overlap
     ethr =  2.64E-05,  avg # of iterations =  2.7

     total cpu time spent up to now is        3.3 secs

     total energy              =     -93.45397151 Ry
     Harris-Foulkes estimate   =     -93.45396811 Ry
     estimated scf accuracy    <       0.00005184 Ry

     iteration #  4     ecut=    35.00 Ry     beta=0.70
     Davidson diagonalization with overlap
     ethr =  6.48E-07,  avg # of iterations =  3.0

     total cpu time spent up to now is        4.0 secs

     End of self-consistent calculation

          k =-0.0714 0.0714 0.0714 (   941 PWs)   bands (ev):

    -5.6897   5.5438   6.1020   6.1020   8.8324   8.9353   8.9353  10.0528

          k =-0.2143 0.2143-0.0714 (   931 PWs)   bands (ev):

    -5.3362   3.7802   5.1014   5.9486   8.9194   9.2443   9.5825  11.6615

          k =-0.3571 0.3571-0.2143 (   946 PWs)   bands (ev):

    -4.4965   1.2749   4.6039   5.4029   8.4380   9.6996   9.9058  13.1993

          k = 0.5000-0.5000 0.6429 (   944 PWs)   bands (ev):

    -3.4870  -0.5524   4.4864   4.9854   8.1741   9.5712   9.7342  14.1857

          k = 0.3571-0.3571 0.5000 (   945 PWs)   bands (ev):

    -3.7819  -0.0928   4.7127   4.8514   8.2254   9.4647   9.9708  13.6392

          k = 0.2143-0.2143 0.3571 (   945 PWs)   bands (ev):

    -4.8221   2.0771   5.0570   5.2113   8.5508   9.4556  10.2229  12.0379

          k = 0.0714-0.0714 0.2143 (   934 PWs)   bands (ev):

    -5.5117   4.6542   5.5742   5.7575   8.5731   9.3116   9.6598  10.8721

          k =-0.0714 0.3571 0.0714 (   942 PWs)   bands (ev):

    -5.1580   3.6269   4.9291   4.9872   8.0716  10.1769  10.6879  10.8079

          k =-0.2143 0.5000-0.0714 (   945 PWs)   bands (ev):

    -4.4720   1.9537   3.7884   4.6729   8.3366  10.1022  10.6115  11.6146

          k = 0.6429-0.3571 0.7857 (   942 PWs)   bands (ev):

    -3.4323   0.0078   3.2464   4.2879   8.5261  10.0693  11.5596  11.7818

          k = 0.5000-0.2143 0.6429 (   947 PWs)   bands (ev):

    -3.1410  -0.4186   2.9857   4.4175   8.7986   9.7323  11.4097  13.3896

          k = 0.3571-0.0714 0.5000 (   945 PWs)   bands (ev):

    -4.1560   1.2623   3.1685   4.9628   9.3185   9.5864  11.1900  11.4215

          k = 0.2143 0.0714 0.3571 (   942 PWs)   bands (ev):

    -4.9877   2.8643   4.4266   5.4654   8.7854   9.5909  10.4364  11.2845

          k =-0.0714 0.6429 0.0714 (   943 PWs)   bands (ev):

    -3.9444   1.3274   3.6768   3.8876   7.2181   8.5460  12.9063  13.0197

          k = 0.7857-0.2143 0.9286 (   950 PWs)   bands (ev):

    -2.9844   0.0103   2.8294   3.4833   7.6625   8.7220  12.6816  14.2399

          k = 0.6429-0.0714 0.7857 (   950 PWs)   bands (ev):

    -2.2478  -0.7966   1.9290   3.6691   7.9949  11.0973  12.1936  13.4918

          k = 0.5000 0.0714 0.6429 (   942 PWs)   bands (ev):

    -3.1285   0.0045   2.2269   4.2871   8.6903  10.6187  12.1059  12.5407

          k = 0.3571 0.2143 0.5000 (   942 PWs)   bands (ev):

    -4.0240   0.5790   3.9844   4.9253   8.7445   9.5120  10.5227  12.3873

          k =-0.0714-1.0714 0.0714 (   954 PWs)   bands (ev):

    -2.1279  -1.0379   3.1081   3.4130   6.9588   7.4058  15.5024  15.5942

          k =-0.2143-0.9286-0.0714 (   950 PWs)   bands (ev):

    -2.0584  -1.0208   2.6066   3.2566   7.5216   8.4242  13.8877  15.1334

          k =-0.3571-0.7857-0.2143 (   952 PWs)   bands (ev):

    -2.7835  -0.4522   2.4607   3.8656   8.1851  10.9346  11.4660  12.7845

          k =-0.5000-0.6429-0.3571 (   950 PWs)   bands (ev):

    -3.2451  -0.6767   3.8781   4.6790   8.6326   9.3583  10.3835  14.3429

          k =-0.0714-0.7857 0.0714 (   952 PWs)   bands (ev):

    -3.1036   0.1274   3.2971   3.5726   7.0080   7.8277  14.2437  14.2561

          k =-0.2143-0.6429-0.0714 (   947 PWs)   bands (ev):

    -3.7989   1.0122   3.2423   3.9598   7.9407   9.3098  11.5688  12.8965

          k =-0.0714-0.5000 0.0714 (   952 PWs)   bands (ev):

    -4.6331   2.5100   4.2479   4.3475   7.5875   9.5020  11.6269  11.8272

          k =-0.2143 0.2143 0.2143 (   938 PWs)   bands (ev):

    -5.1637   2.9342   5.5772   5.5772   8.3701   9.6292   9.6292  12.5021

          k =-0.3571 0.3571 0.0714 (   941 PWs)   bands (ev):

    -4.6509   2.0413   3.7674   5.5340   9.1104   9.8770  10.1331  12.0982

          k = 0.5000-0.5000 0.9286 (   947 PWs)   bands (ev):

    -3.6992   0.5991   2.6191   4.8881   8.6645  10.8583  11.0288  12.6918

          k = 0.3571-0.3571 0.7857 (   947 PWs)   bands (ev):

    -2.8960  -0.5835   2.6808   4.3343   8.0983  11.0815  11.3071  12.8884

          k = 0.2143-0.2143 0.6429 (   949 PWs)   bands (ev):

    -3.6697   0.5598   3.3165   4.1332   7.9020  10.3559  11.3637  11.7892

          k =-0.2143 0.5000 0.2143 (   943 PWs)   bands (ev):

    -4.3193   1.2927   4.2906   4.5502   8.3739  10.1464  10.9434  11.0852

          k = 0.6429-0.3571 1.0714 (   939 PWs)   bands (ev):

    -3.5185   0.5211   2.6975   4.1133   9.1410  10.0092  10.5900  12.7382

          k = 0.5000-0.2143 0.9286 (   941 PWs)   bands (ev):

    -2.4944  -0.5306   2.0472   3.4515   9.2841  10.3828  11.7063  12.9296

          k = 0.3571-0.0714 0.7857 (   943 PWs)   bands (ev):

    -2.7659  -0.2281   2.3828   3.3598   8.8607  10.0324  10.9915  14.2077

          k =-0.2143-1.2143 0.2143 (   949 PWs)   bands (ev):

    -2.9020  -0.1866   2.5382   3.8417   7.5188   9.8909  12.6838  12.7672

          k =-0.3571-1.0714 0.0714 (   946 PWs)   bands (ev):

    -1.9602  -1.0087   2.2322   2.9258   8.7114   9.8059  12.0753  13.3389

          k =-0.5000-0.9286-0.0714 (   942 PWs)   bands (ev):

    -1.9110  -1.0084   2.1041   2.7725  10.0497  10.3833  11.3596  11.7799

          k =-0.2143-0.9286 0.2143 (   949 PWs)   bands (ev):

    -2.1030  -0.9581   2.1182   3.6924   7.3133   9.6643  13.8205  14.0488

          k =-0.3571 0.3571 0.3571 (   941 PWs)   bands (ev):

    -4.1979   0.5142   5.1572   5.1572   7.9094   9.6905   9.6905  14.1065

          k = 0.5000-0.5000 1.2143 (   945 PWs)   bands (ev):

    -3.6122  -0.0146   3.4921   4.9301   8.6275  10.0229  10.2307  13.8910

          k = 0.3571-0.3571 1.0714 (   951 PWs)   bands (ev):

    -2.6774  -0.4483   1.9425   4.2150   7.9197  12.1816  12.1907  12.8898

          k =-0.3571-1.3571 0.3571 (   942 PWs)   bands (ev):

    -3.3083  -0.4809   3.7129   4.5579   8.3624   9.9524  10.5259  13.1875

          k =-0.5000-1.2143 0.2143 (   946 PWs)   bands (ev):

    -2.7232  -0.5778   2.4719   3.7981   9.4159   9.4806  12.8101  12.8796

          k = 0.5000-0.5000-0.5000 (   960 PWs)   bands (ev):

    -3.4231  -0.7620   5.0111   5.0112   7.7428   9.5544   9.5544  13.9372

     the Fermi energy is     6.5143 ev

!    total energy              =     -93.45398329 Ry
     Harris-Foulkes estimate   =     -93.45398323 Ry
     estimated scf accuracy    <       0.00000016 Ry

     total all-electron energy =     -1160.145719 Ry

     The total energy is the sum of the following terms:

     one-electron contribution =       5.73575389 Ry
     hartree contribution      =       1.09744611 Ry
     xc contribution           =     -12.25547816 Ry
     ewald contribution        =     -16.79708772 Ry
     one-center paw contrib.   =     -71.23461701 Ry
     smearing contrib. (-TS)   =      -0.00000040 Ry

     convergence has been achieved in   4 iterations

     Writing output data file SCF.save
 
     init_run     :      0.45s CPU      0.46s WALL (       1 calls)
     electrons    :      3.30s CPU      3.36s WALL (       1 calls)

     Called by init_run:
     wfcinit      :      0.20s CPU      0.21s WALL (       1 calls)
     potinit      :      0.08s CPU      0.09s WALL (       1 calls)

     Called by electrons:
     c_bands      :      2.45s CPU      2.49s WALL (       5 calls)
     sum_band     :      0.51s CPU      0.52s WALL (       5 calls)
     v_of_rho     :      0.04s CPU      0.04s WALL (       5 calls)
     newd         :      0.01s CPU      0.02s WALL (       5 calls)
     PAW_pot      :      0.36s CPU      0.37s WALL (       5 calls)
     mix_rho      :      0.00s CPU      0.00s WALL (       5 calls)

     Called by c_bands:
     init_us_2    :      0.07s CPU      0.07s WALL (     484 calls)
     cegterg      :      2.30s CPU      2.33s WALL (     220 calls)

     Called by sum_band:
     sum_band:bec :      0.00s CPU      0.00s WALL (     220 calls)
     addusdens    :      0.01s CPU      0.02s WALL (       5 calls)

     Called by *egterg:
     h_psi        :      2.15s CPU      2.19s WALL (     766 calls)
     s_psi        :      0.04s CPU      0.04s WALL (     766 calls)
     g_psi        :      0.02s CPU      0.02s WALL (     502 calls)
     cdiaghg      :      0.09s CPU      0.09s WALL (     678 calls)

     Called by h_psi:
     h_psi:pot    :      2.14s CPU      2.17s WALL (     766 calls)
     h_psi:calbec :      0.04s CPU      0.04s WALL (     766 calls)
     vloc_psi     :      2.06s CPU      2.09s WALL (     766 calls)
     add_vuspsi   :      0.04s CPU      0.04s WALL (     766 calls)

     General routines
     calbec       :      0.06s CPU      0.06s WALL (     986 calls)
     fft          :      0.02s CPU      0.02s WALL (      67 calls)
     fftw         :      2.21s CPU      2.23s WALL (   11232 calls)
     davcio       :      0.00s CPU      0.01s WALL (      44 calls)
 
     Parallel routines
     fft_scatter  :      0.23s CPU      0.23s WALL (   11299 calls)
 
     PWSCF        :     4.03s CPU         4.14s WALL

 
   This run was terminated on:   8:17:17   9Sep2018            

=------------------------------------------------------------------------------=
   JOB DONE.
=------------------------------------------------------------------------------=
