
     Program PWSCF v.6.1 (svn rev. 13369) starts on  9Sep2018 at  8:17:17 

     This program is part of the open-source Quantum ESPRESSO suite
     for quantum simulation of materials; please cite
         "P. Giannozzi et al., J. Phys.:Condens. Matter 21 395502 (2009);
          URL http://www.quantum-espresso.org", 
     in publications or presentations arising from this work. More details at
     http://www.quantum-espresso.org/quote

     Parallel version (MPI), running on     1 processors
     Waiting for input...
     Reading input from standard input

     Current dimensions of program PWSCF are:
     Max number of different atomic species (ntypx) = 10
     Max number of k-points (npk) =  40000
     Max angular momentum in pseudopotentials (lmaxx) =  3
               file Si.pbe-n-kjpaw_psl.0.1.UPF: wavefunction(s)  3S renormalized

     Subspace diagonalization in iterative solution of the eigenvalue problem:
     a serial algorithm will be used

 
     G-vector sticks info
     --------------------
     sticks:   dense  smooth     PW     G-vecs:    dense   smooth      PW
     Sum         511     511    163                 7631     7631    1459
 


     bravais-lattice index     =            2
     lattice parameter (alat)  =      10.2623  a.u.
     unit-cell volume          =     270.1967 (a.u.)^3
     number of atoms/cell      =            2
     number of atomic types    =            1
     number of electrons       =         8.00
     number of Kohn-Sham states=            8
     kinetic-energy cutoff     =      35.0000  Ry
     charge density cutoff     =     140.0000  Ry
     convergence threshold     =      1.0E-06
     mixing beta               =       0.7000
     number of iterations used =            8  plain     mixing
     Exchange-correlation      =  SLA  PW   PBX  PBC ( 1  4  3  4 0 0)

     celldm(1)=  10.262347  celldm(2)=   0.000000  celldm(3)=   0.000000
     celldm(4)=   0.000000  celldm(5)=   0.000000  celldm(6)=   0.000000

     crystal axes: (cart. coord. in units of alat)
               a(1) = (  -0.500000   0.000000   0.500000 )  
               a(2) = (   0.000000   0.500000   0.500000 )  
               a(3) = (  -0.500000   0.500000   0.000000 )  

     reciprocal axes: (cart. coord. in units 2 pi/alat)
               b(1) = ( -1.000000 -1.000000  1.000000 )  
               b(2) = (  1.000000  1.000000  1.000000 )  
               b(3) = ( -1.000000  1.000000 -1.000000 )  


     PseudoPot. # 1 for Si read from file:
     /opt/home/guest1/upf_files/Si.pbe-n-kjpaw_psl.0.1.UPF
     MD5 check sum: b9d333a40e496bef61db012f150758bf
     Pseudo is Projector augmented-wave + core cor, Zval =  4.0
     Generated using "atomic" code by A. Dal Corso  v.5.0.2 svn rev. 9415
     Shape of augmentation charge: PSQ
     Using radial grid of 1141 points,  4 beta functions with: 
                l(1) =   0
                l(2) =   0
                l(3) =   1
                l(4) =   1
     Q(r) pseudized with 0 coefficients 


     atomic species   valence    mass     pseudopotential
        Si             4.00    28.08550     Si( 1.00)

     24 Sym. Ops. (no inversion) found
          (note: 24 additional sym.ops. were found but ignored
           their fractional translations are incommensurate with FFT grid)


   Cartesian axes

     site n.     atom                  positions (alat units)
         1           Si  tau(   1) = (   0.0000000   0.0000000   0.0000000  )
         2           Si  tau(   2) = (  -0.2500000   0.2500000   0.2500000  )

     number of k points=    60  Fermi-Dirac smearing, width (Ry)=  0.0036
                       cart. coord. in units 2pi/alat
        k(    1) = (  -0.0625000   0.0625000   0.0625000), wk =   0.0078125
        k(    2) = (  -0.1875000   0.1875000  -0.0625000), wk =   0.0234375
        k(    3) = (  -0.3125000   0.3125000  -0.1875000), wk =   0.0234375
        k(    4) = (  -0.4375000   0.4375000  -0.3125000), wk =   0.0234375
        k(    5) = (   0.4375000  -0.4375000   0.5625000), wk =   0.0234375
        k(    6) = (   0.3125000  -0.3125000   0.4375000), wk =   0.0234375
        k(    7) = (   0.1875000  -0.1875000   0.3125000), wk =   0.0234375
        k(    8) = (   0.0625000  -0.0625000   0.1875000), wk =   0.0234375
        k(    9) = (  -0.0625000   0.3125000   0.0625000), wk =   0.0234375
        k(   10) = (  -0.1875000   0.4375000  -0.0625000), wk =   0.0468750
        k(   11) = (  -0.3125000   0.5625000  -0.1875000), wk =   0.0468750
        k(   12) = (   0.5625000  -0.3125000   0.6875000), wk =   0.0468750
        k(   13) = (   0.4375000  -0.1875000   0.5625000), wk =   0.0468750
        k(   14) = (   0.3125000  -0.0625000   0.4375000), wk =   0.0468750
        k(   15) = (   0.1875000   0.0625000   0.3125000), wk =   0.0468750
        k(   16) = (  -0.0625000   0.5625000   0.0625000), wk =   0.0234375
        k(   17) = (  -0.1875000   0.6875000  -0.0625000), wk =   0.0468750
        k(   18) = (   0.6875000  -0.1875000   0.8125000), wk =   0.0468750
        k(   19) = (   0.5625000  -0.0625000   0.6875000), wk =   0.0468750
        k(   20) = (   0.4375000   0.0625000   0.5625000), wk =   0.0468750
        k(   21) = (   0.3125000   0.1875000   0.4375000), wk =   0.0468750
        k(   22) = (  -0.0625000   0.8125000   0.0625000), wk =   0.0234375
        k(   23) = (   0.8125000  -0.0625000   0.9375000), wk =   0.0468750
        k(   24) = (   0.6875000   0.0625000   0.8125000), wk =   0.0468750
        k(   25) = (   0.5625000   0.1875000   0.6875000), wk =   0.0468750
        k(   26) = (   0.4375000   0.3125000   0.5625000), wk =   0.0468750
        k(   27) = (  -0.0625000  -0.9375000   0.0625000), wk =   0.0234375
        k(   28) = (  -0.1875000  -0.8125000  -0.0625000), wk =   0.0468750
        k(   29) = (  -0.3125000  -0.6875000  -0.1875000), wk =   0.0468750
        k(   30) = (  -0.0625000  -0.6875000   0.0625000), wk =   0.0234375
        k(   31) = (  -0.1875000  -0.5625000  -0.0625000), wk =   0.0468750
        k(   32) = (  -0.0625000  -0.4375000   0.0625000), wk =   0.0234375
        k(   33) = (  -0.1875000   0.1875000   0.1875000), wk =   0.0078125
        k(   34) = (  -0.3125000   0.3125000   0.0625000), wk =   0.0234375
        k(   35) = (  -0.4375000   0.4375000  -0.0625000), wk =   0.0234375
        k(   36) = (   0.4375000  -0.4375000   0.8125000), wk =   0.0234375
        k(   37) = (   0.3125000  -0.3125000   0.6875000), wk =   0.0234375
        k(   38) = (   0.1875000  -0.1875000   0.5625000), wk =   0.0234375
        k(   39) = (  -0.1875000   0.4375000   0.1875000), wk =   0.0234375
        k(   40) = (  -0.3125000   0.5625000   0.0625000), wk =   0.0468750
        k(   41) = (   0.5625000  -0.3125000   0.9375000), wk =   0.0468750
        k(   42) = (   0.4375000  -0.1875000   0.8125000), wk =   0.0468750
        k(   43) = (   0.3125000  -0.0625000   0.6875000), wk =   0.0468750
        k(   44) = (  -0.1875000   0.6875000   0.1875000), wk =   0.0234375
        k(   45) = (   0.6875000  -0.1875000   1.0625000), wk =   0.0468750
        k(   46) = (   0.5625000  -0.0625000   0.9375000), wk =   0.0468750
        k(   47) = (   0.4375000   0.0625000   0.8125000), wk =   0.0468750
        k(   48) = (  -0.1875000  -1.0625000   0.1875000), wk =   0.0234375
        k(   49) = (  -0.3125000  -0.9375000   0.0625000), wk =   0.0468750
        k(   50) = (  -0.1875000  -0.8125000   0.1875000), wk =   0.0234375
        k(   51) = (  -0.3125000   0.3125000   0.3125000), wk =   0.0078125
        k(   52) = (  -0.4375000   0.4375000   0.1875000), wk =   0.0234375
        k(   53) = (   0.4375000  -0.4375000   1.0625000), wk =   0.0234375
        k(   54) = (   0.3125000  -0.3125000   0.9375000), wk =   0.0234375
        k(   55) = (  -0.3125000   0.5625000   0.3125000), wk =   0.0234375
        k(   56) = (   0.5625000  -0.3125000   1.1875000), wk =   0.0468750
        k(   57) = (   0.4375000  -0.1875000   1.0625000), wk =   0.0468750
        k(   58) = (  -0.3125000  -1.1875000   0.3125000), wk =   0.0234375
        k(   59) = (  -0.4375000   0.4375000   0.4375000), wk =   0.0078125
        k(   60) = (   0.4375000  -0.4375000   1.3125000), wk =   0.0234375

     Dense  grid:     7631 G-vectors     FFT dimensions: (  27,  27,  27)

     Estimated max dynamical RAM per process >      12.63MB

     Check: negative/imaginary core charge=   -0.000003    0.000000

     Initial potential from superposition of free atoms

     starting charge    7.99888, renormalised to    8.00000
     Starting wfc are    8 randomized atomic wfcs
     Checking if some PAW data can be deallocated... 

     total cpu time spent up to now is        0.7 secs

     per-process dynamical memory:    47.9 Mb

     Self-consistent Calculation

     iteration #  1     ecut=    35.00 Ry     beta=0.70
     Davidson diagonalization with overlap
     ethr =  1.00E-02,  avg # of iterations =  3.8

     Threshold (ethr) on eigenvalues was too large:
     Diagonalizing with lowered threshold

     Davidson diagonalization with overlap
     ethr =  7.29E-04,  avg # of iterations =  1.0

     total cpu time spent up to now is        2.6 secs

     total energy              =     -93.45138733 Ry
     Harris-Foulkes estimate   =     -93.46539416 Ry
     estimated scf accuracy    <       0.05765983 Ry

     iteration #  2     ecut=    35.00 Ry     beta=0.70
     Davidson diagonalization with overlap
     ethr =  7.21E-04,  avg # of iterations =  1.0

     total cpu time spent up to now is        3.4 secs

     total energy              =     -93.45388920 Ry
     Harris-Foulkes estimate   =     -93.45397032 Ry
     estimated scf accuracy    <       0.00210968 Ry

     iteration #  3     ecut=    35.00 Ry     beta=0.70
     Davidson diagonalization with overlap
     ethr =  2.64E-05,  avg # of iterations =  2.8

     total cpu time spent up to now is        4.2 secs

     total energy              =     -93.45397270 Ry
     Harris-Foulkes estimate   =     -93.45396924 Ry
     estimated scf accuracy    <       0.00005183 Ry

     iteration #  4     ecut=    35.00 Ry     beta=0.70
     Davidson diagonalization with overlap
     ethr =  6.48E-07,  avg # of iterations =  2.8

     total cpu time spent up to now is        5.2 secs

     End of self-consistent calculation

          k =-0.0625 0.0625 0.0625 (   941 PWs)   bands (ev):

    -5.7054   5.6793   6.1258   6.1258   8.8374   8.8999   8.8999   9.9376

          k =-0.1875 0.1875-0.0625 (   930 PWs)   bands (ev):

    -5.4339   4.1695   5.3060   6.0086   8.9175   9.1461   9.4523  11.3674

          k =-0.3125 0.3125-0.1875 (   944 PWs)   bands (ev):

    -4.7783   1.9211   4.8158   5.5413   8.4781   9.6348   9.9248  12.8480

          k =-0.4375 0.4375-0.3125 (   937 PWs)   bands (ev):

    -3.8611   0.0103   4.6001   5.1296   8.1639   9.6823   9.6959  14.0538

          k = 0.4375-0.4375 0.5625 (   948 PWs)   bands (ev):

    -3.4024  -0.7031   4.6526   4.9077   8.0827   9.4828   9.7572  14.1065

          k = 0.3125-0.3125 0.4375 (   938 PWs)   bands (ev):

    -4.1758   0.5763   4.9266   4.9431   8.2473   9.4988  10.0268  13.1652

          k = 0.1875-0.1875 0.3125 (   940 PWs)   bands (ev):

    -5.0355   2.6589   5.2039   5.4120   8.5938   9.3858  10.1028  11.9899

          k = 0.0625-0.0625 0.1875 (   936 PWs)   bands (ev):

    -5.5690   4.9292   5.6911   5.8585   8.6110   9.2249   9.4896  10.6497

          k =-0.0625 0.3125 0.0625 (   938 PWs)   bands (ev):

    -5.2974   4.0379   5.1248   5.2168   8.1822  10.0026  10.3595  10.8986

          k =-0.1875 0.4375-0.0625 (   947 PWs)   bands (ev):

    -4.7661   2.5245   4.1426   4.9538   8.3535  10.1186  10.6532  11.1614

          k =-0.3125 0.5625-0.1875 (   943 PWs)   bands (ev):

    -3.9085   0.6390   3.6496   4.5348   8.5539  10.0078  11.1893  11.4260

          k = 0.5625-0.3125 0.6875 (   947 PWs)   bands (ev):

    -3.1309  -0.5924   3.3596   4.4394   8.6336   9.6781  11.0223  13.4856

          k = 0.4375-0.1875 0.5625 (   943 PWs)   bands (ev):

    -3.5991   0.1111   3.2816   4.7299   8.9345   9.5754  10.9715  12.7217

          k = 0.3125-0.0625 0.4375 (   941 PWs)   bands (ev):

    -4.5145   1.8657   3.5785   5.2468   9.2437   9.5431  10.8539  11.3043

          k = 0.1875 0.0625 0.3125 (   936 PWs)   bands (ev):

    -5.1653   3.3507   4.7208   5.6264   8.7609   9.4774  10.1676  11.4125

          k =-0.0625 0.5625 0.0625 (   948 PWs)   bands (ev):

    -4.3606   2.0296   3.9989   4.1225   7.3575   9.0181  12.2499  12.3846

          k =-0.1875 0.6875-0.0625 (   945 PWs)   bands (ev):

    -3.5986   0.7799   3.1985   3.7695   7.6728   8.8569  12.2068  13.3886

          k = 0.6875-0.1875 0.8125 (   946 PWs)   bands (ev):

    -2.6847  -0.4375   2.3455   3.7379   7.9061  10.5378  11.7757  13.3018

          k = 0.5625-0.0625 0.6875 (   948 PWs)   bands (ev):

    -2.7558  -0.3433   1.9845   4.0883   8.3178  11.2916  12.6245  12.8750

          k = 0.4375 0.0625 0.5625 (   943 PWs)   bands (ev):

    -3.6673   0.6153   2.6019   4.6841   8.9725  10.1788  11.6386  11.8882

          k = 0.3125 0.1875 0.4375 (   946 PWs)   bands (ev):

    -4.3993   1.2433   4.2672   5.1469   8.7227   9.5404  10.4006  12.0877

          k =-0.0625 0.8125 0.0625 (   954 PWs)   bands (ev):

    -2.9372  -0.0907   3.2995   3.5224   6.9514   7.6595  14.5661  14.5715

          k = 0.8125-0.0625 0.9375 (   953 PWs)   bands (ev):

    -2.0138  -1.0913   2.7289   3.2728   7.3849   8.1240  14.3051  15.3599

          k = 0.6875 0.0625 0.8125 (   946 PWs)   bands (ev):

    -2.1064  -0.9275   1.9840   3.5926   7.7557  10.3839  12.7619  13.9301

          k = 0.5625 0.1875 0.6875 (   950 PWs)   bands (ev):

    -2.8721  -0.5363   2.5610   4.2036   8.4435  10.4353  11.9959  13.2368

          k = 0.4375 0.3125 0.5625 (   942 PWs)   bands (ev):

    -3.4906  -0.3976   4.0953   4.8047   8.5297   9.4143  10.2109  13.8009

          k =-0.0625-0.9375 0.0625 (   954 PWs)   bands (ev):

    -2.0674  -1.1102   3.1598   3.3999   6.9425   7.3058  15.6589  15.7428

          k =-0.1875-0.8125-0.0625 (   952 PWs)   bands (ev):

    -2.8495  -0.1547   2.8898   3.4342   7.4772   8.3739  13.2260  14.5662

          k =-0.3125-0.6875-0.1875 (   945 PWs)   bands (ev):

    -3.3244   0.0911   2.9626   4.0429   8.1911  10.7208  10.9953  12.2109

          k =-0.0625-0.6875 0.0625 (   947 PWs)   bands (ev):

    -3.7057   0.9666   3.5791   3.7652   7.0882   8.2406  13.3940  13.4596

          k =-0.1875-0.5625-0.0625 (   949 PWs)   bands (ev):

    -4.2413   1.6750   3.6264   4.2889   7.9717   9.5461  11.2541  12.2443

          k =-0.0625-0.4375 0.0625 (   949 PWs)   bands (ev):

    -4.8932   3.0638   4.5547   4.5834   7.7367   9.9161  11.1797  11.3447

          k =-0.1875 0.1875 0.1875 (   932 PWs)   bands (ev):

    -5.3005   3.4350   5.6787   5.6787   8.4757   9.5234   9.5234  12.0244

          k =-0.3125 0.3125 0.0625 (   938 PWs)   bands (ev):

    -4.9030   2.5972   4.1396   5.7012   9.1304   9.6446   9.9455  12.0000

          k =-0.4375 0.4375-0.0625 (   940 PWs)   bands (ev):

    -4.1447   1.2192   3.0420   5.1878   8.9442  10.4068  10.6229  12.2853

          k = 0.4375-0.4375 0.8125 (   947 PWs)   bands (ev):

    -3.2331  -0.2975   2.8963   4.6474   8.4209  10.6074  10.7842  14.1431

          k = 0.3125-0.3125 0.6875 (   942 PWs)   bands (ev):

    -3.2176  -0.3257   3.2031   4.3233   8.1300  10.6880  11.1322  12.1450

          k = 0.1875-0.1875 0.5625 (   942 PWs)   bands (ev):

    -4.1281   1.2152   3.8229   4.2972   8.0602  10.2796  10.9637  11.5230

          k =-0.1875 0.4375 0.1875 (   944 PWs)   bands (ev):

    -4.6425   1.9213   4.6667   4.7216   8.4740   9.9025  10.7766  11.1143

          k =-0.3125 0.5625 0.0625 (   942 PWs)   bands (ev):

    -4.0069   1.1580   3.0994   4.5244   8.9609  10.0416  10.4872  12.0583

          k = 0.5625-0.3125 0.9375 (   943 PWs)   bands (ev):

    -3.1007   0.0479   2.2945   3.9432   9.4158   9.9086  11.2040  13.1600

          k = 0.4375-0.1875 0.8125 (   946 PWs)   bands (ev):

    -2.6027  -0.5793   2.3028   3.6233   8.9344  10.2415  11.9911  13.3289

          k = 0.3125-0.0625 0.6875 (   945 PWs)   bands (ev):

    -3.3915   0.4474   2.7283   3.8067   8.6646   9.8753  10.8036  13.2981

          k =-0.1875 0.6875 0.1875 (   950 PWs)   bands (ev):

    -3.5029   0.5008   3.0716   3.9620   7.6666   9.7150  12.0737  12.3509

          k = 0.6875-0.1875 1.0625 (   946 PWs)   bands (ev):

    -2.6865  -0.2970   2.4775   3.2586   8.4530   9.4711  11.6965  14.5487

          k = 0.5625-0.0625 0.9375 (   947 PWs)   bands (ev):

    -1.8636  -1.0593   2.1488   2.7458   9.5834  10.5080  11.2528  12.2532

          k = 0.4375 0.0625 0.8125 (   943 PWs)   bands (ev):

    -2.4759  -0.5089   2.1449   3.2311   9.6791  10.1197  10.9153  13.4200

          k =-0.1875-1.0625 0.1875 (   953 PWs)   bands (ev):

    -2.0318  -1.0422   2.2564   3.6153   7.2221   9.1535  14.2089  14.4498

          k =-0.3125-0.9375 0.0625 (   947 PWs)   bands (ev):

    -1.9302  -1.0694   2.3520   2.9681   8.3440   9.2696  12.7049  13.8283

          k =-0.1875-0.8125 0.1875 (   951 PWs)   bands (ev):

    -2.7858  -0.2618   2.5307   3.7320   7.3752   9.3382  13.2476  13.2657

          k =-0.3125 0.3125 0.3125 (   941 PWs)   bands (ev):

    -4.5329   1.2068   5.2615   5.2615   8.0266   9.7404   9.7404  13.9568

          k =-0.4375 0.4375 0.1875 (   944 PWs)   bands (ev):

    -4.0456   0.6277   3.7769   5.1738   8.7302   9.9709  10.0120  13.2957

          k = 0.4375-0.4375 1.0625 (   948 PWs)   bands (ev):

    -3.2402   0.1081   2.2136   4.5817   8.3353  11.4382  11.6249  13.0696

          k = 0.3125-0.3125 0.9375 (   952 PWs)   bands (ev):

    -2.4035  -0.6775   1.8640   4.0257   7.6997  11.6240  12.7241  13.0460

          k =-0.3125 0.5625 0.3125 (   939 PWs)   bands (ev):

    -3.7253   0.0603   4.1244   4.5989   8.4106   9.7702  10.4964  12.5634

          k = 0.5625-0.3125 1.1875 (   951 PWs)   bands (ev):

    -3.0946  -0.2928   2.7885   4.1113   9.1741   9.5121  12.1149  12.2908

          k = 0.4375-0.1875 1.0625 (   942 PWs)   bands (ev):

    -2.2640  -0.7394   1.9573   3.3835   8.8024  11.0687  11.8877  12.4328

          k =-0.3125-1.1875 0.3125 (   948 PWs)   bands (ev):

    -2.7290  -0.5712   2.3828   4.1271   7.8522  11.5853  11.9080  12.0732

          k =-0.4375 0.4375 0.4375 (   945 PWs)   bands (ev):

    -3.6254  -0.4634   5.0391   5.0391   7.7749   9.5859   9.5859  13.9855

          k = 0.4375-0.4375 1.3125 (   944 PWs)   bands (ev):

    -3.2675  -0.6384   3.8015   4.7651   8.4555   9.7458  10.1746  14.4210

     the Fermi energy is     6.5119 ev

!    total energy              =     -93.45398424 Ry
     Harris-Foulkes estimate   =     -93.45398417 Ry
     estimated scf accuracy    <       0.00000014 Ry

     total all-electron energy =     -1160.145720 Ry

     The total energy is the sum of the following terms:

     one-electron contribution =       5.73576960 Ry
     hartree contribution      =       1.09746990 Ry
     xc contribution           =     -12.25549258 Ry
     ewald contribution        =     -16.79708772 Ry
     one-center paw contrib.   =     -71.23464296 Ry
     smearing contrib. (-TS)   =      -0.00000047 Ry

     convergence has been achieved in   4 iterations

     Writing output data file SCF.save
 
     init_run     :      0.52s CPU      0.54s WALL (       1 calls)
     electrons    :      4.39s CPU      4.46s WALL (       1 calls)

     Called by init_run:
     wfcinit      :      0.26s CPU      0.28s WALL (       1 calls)
     potinit      :      0.08s CPU      0.09s WALL (       1 calls)

     Called by electrons:
     c_bands      :      3.35s CPU      3.41s WALL (       5 calls)
     sum_band     :      0.70s CPU      0.71s WALL (       5 calls)
     v_of_rho     :      0.04s CPU      0.04s WALL (       5 calls)
     newd         :      0.01s CPU      0.01s WALL (       5 calls)
     PAW_pot      :      0.36s CPU      0.36s WALL (       5 calls)
     mix_rho      :      0.00s CPU      0.00s WALL (       5 calls)

     Called by c_bands:
     init_us_2    :      0.10s CPU      0.10s WALL (     660 calls)
     cegterg      :      3.14s CPU      3.19s WALL (     300 calls)

     Called by sum_band:
     sum_band:bec :      0.00s CPU      0.00s WALL (     300 calls)
     addusdens    :      0.02s CPU      0.02s WALL (       5 calls)

     Called by *egterg:
     h_psi        :      2.93s CPU      2.99s WALL (    1044 calls)
     s_psi        :      0.05s CPU      0.05s WALL (    1044 calls)
     g_psi        :      0.02s CPU      0.02s WALL (     684 calls)
     cdiaghg      :      0.12s CPU      0.12s WALL (     924 calls)

     Called by h_psi:
     h_psi:pot    :      2.92s CPU      2.97s WALL (    1044 calls)
     h_psi:calbec :      0.06s CPU      0.06s WALL (    1044 calls)
     vloc_psi     :      2.80s CPU      2.85s WALL (    1044 calls)
     add_vuspsi   :      0.05s CPU      0.05s WALL (    1044 calls)

     General routines
     calbec       :      0.08s CPU      0.08s WALL (    1344 calls)
     fft          :      0.02s CPU      0.02s WALL (      67 calls)
     fftw         :      3.01s CPU      3.04s WALL (   15286 calls)
     davcio       :      0.00s CPU      0.02s WALL (      60 calls)
 
     Parallel routines
     fft_scatter  :      0.30s CPU      0.32s WALL (   15353 calls)
 
     PWSCF        :     5.21s CPU         5.33s WALL

 
   This run was terminated on:   8:17:22   9Sep2018            

=------------------------------------------------------------------------------=
   JOB DONE.
=------------------------------------------------------------------------------=
