
     Program PWSCF v.6.1 (svn rev. 13369) starts on  9Sep2018 at  7:52: 5 

     This program is part of the open-source Quantum ESPRESSO suite
     for quantum simulation of materials; please cite
         "P. Giannozzi et al., J. Phys.:Condens. Matter 21 395502 (2009);
          URL http://www.quantum-espresso.org", 
     in publications or presentations arising from this work. More details at
     http://www.quantum-espresso.org/quote

     Parallel version (MPI), running on     1 processors
     Waiting for input...
     Reading input from standard input

     Current dimensions of program PWSCF are:
     Max number of different atomic species (ntypx) = 10
     Max number of k-points (npk) =  40000
     Max angular momentum in pseudopotentials (lmaxx) =  3
               file Si.pbe-n-kjpaw_psl.0.1.UPF: wavefunction(s)  3S renormalized

     Subspace diagonalization in iterative solution of the eigenvalue problem:
     a serial algorithm will be used

 
     G-vector sticks info
     --------------------
     sticks:   dense  smooth     PW     G-vecs:    dense   smooth      PW
     Sum         211     211     85                 2109     2109     531
 


     bravais-lattice index     =            2
     lattice parameter (alat)  =      10.2623  a.u.
     unit-cell volume          =     270.1967 (a.u.)^3
     number of atoms/cell      =            2
     number of atomic types    =            1
     number of electrons       =         8.00
     number of Kohn-Sham states=            8
     kinetic-energy cutoff     =      15.0000  Ry
     charge density cutoff     =      60.0000  Ry
     convergence threshold     =      1.0E-06
     mixing beta               =       0.7000
     number of iterations used =            8  plain     mixing
     Exchange-correlation      =  SLA  PW   PBX  PBC ( 1  4  3  4 0 0)

     celldm(1)=  10.262347  celldm(2)=   0.000000  celldm(3)=   0.000000
     celldm(4)=   0.000000  celldm(5)=   0.000000  celldm(6)=   0.000000

     crystal axes: (cart. coord. in units of alat)
               a(1) = (  -0.500000   0.000000   0.500000 )  
               a(2) = (   0.000000   0.500000   0.500000 )  
               a(3) = (  -0.500000   0.500000   0.000000 )  

     reciprocal axes: (cart. coord. in units 2 pi/alat)
               b(1) = ( -1.000000 -1.000000  1.000000 )  
               b(2) = (  1.000000  1.000000  1.000000 )  
               b(3) = ( -1.000000  1.000000 -1.000000 )  


     PseudoPot. # 1 for Si read from file:
     /opt/home/guest1/upf_files/Si.pbe-n-kjpaw_psl.0.1.UPF
     MD5 check sum: b9d333a40e496bef61db012f150758bf
     Pseudo is Projector augmented-wave + core cor, Zval =  4.0
     Generated using "atomic" code by A. Dal Corso  v.5.0.2 svn rev. 9415
     Shape of augmentation charge: PSQ
     Using radial grid of 1141 points,  4 beta functions with: 
                l(1) =   0
                l(2) =   0
                l(3) =   1
                l(4) =   1
     Q(r) pseudized with 0 coefficients 


     atomic species   valence    mass     pseudopotential
        Si             4.00    28.08550     Si( 1.00)

     24 Sym. Ops. (no inversion) found
          (note: 24 additional sym.ops. were found but ignored
           their fractional translations are incommensurate with FFT grid)


   Cartesian axes

     site n.     atom                  positions (alat units)
         1           Si  tau(   1) = (   0.0000000   0.0000000   0.0000000  )
         2           Si  tau(   2) = (  -0.2500000   0.2500000   0.2500000  )

     number of k points=    28  Fermi-Dirac smearing, width (Ry)=  0.0036
                       cart. coord. in units 2pi/alat
        k(    1) = (  -0.0833333   0.0833333   0.0833333), wk =   0.0185185
        k(    2) = (  -0.2500000   0.2500000  -0.0833333), wk =   0.0555556
        k(    3) = (  -0.4166667   0.4166667  -0.2500000), wk =   0.0555556
        k(    4) = (   0.4166667  -0.4166667   0.5833333), wk =   0.0555556
        k(    5) = (   0.2500000  -0.2500000   0.4166667), wk =   0.0555556
        k(    6) = (   0.0833333  -0.0833333   0.2500000), wk =   0.0555556
        k(    7) = (  -0.0833333   0.4166667   0.0833333), wk =   0.0555556
        k(    8) = (  -0.2500000   0.5833333  -0.0833333), wk =   0.1111111
        k(    9) = (   0.5833333  -0.2500000   0.7500000), wk =   0.1111111
        k(   10) = (   0.4166667  -0.0833333   0.5833333), wk =   0.1111111
        k(   11) = (   0.2500000   0.0833333   0.4166667), wk =   0.1111111
        k(   12) = (  -0.0833333   0.7500000   0.0833333), wk =   0.0555556
        k(   13) = (   0.7500000  -0.0833333   0.9166667), wk =   0.1111111
        k(   14) = (   0.5833333   0.0833333   0.7500000), wk =   0.1111111
        k(   15) = (   0.4166667   0.2500000   0.5833333), wk =   0.1111111
        k(   16) = (  -0.0833333  -0.9166667   0.0833333), wk =   0.0555556
        k(   17) = (  -0.2500000  -0.7500000  -0.0833333), wk =   0.1111111
        k(   18) = (  -0.0833333  -0.5833333   0.0833333), wk =   0.0555556
        k(   19) = (  -0.2500000   0.2500000   0.2500000), wk =   0.0185185
        k(   20) = (  -0.4166667   0.4166667   0.0833333), wk =   0.0555556
        k(   21) = (   0.4166667  -0.4166667   0.9166667), wk =   0.0555556
        k(   22) = (   0.2500000  -0.2500000   0.7500000), wk =   0.0555556
        k(   23) = (  -0.2500000   0.5833333   0.2500000), wk =   0.0555556
        k(   24) = (   0.5833333  -0.2500000   1.0833333), wk =   0.1111111
        k(   25) = (   0.4166667  -0.0833333   0.9166667), wk =   0.1111111
        k(   26) = (  -0.2500000  -1.0833333   0.2500000), wk =   0.0555556
        k(   27) = (  -0.4166667   0.4166667   0.4166667), wk =   0.0185185
        k(   28) = (   0.4166667  -0.4166667   1.2500000), wk =   0.0555556

     Dense  grid:     2109 G-vectors     FFT dimensions: (  18,  18,  18)

     Estimated max dynamical RAM per process >       2.54MB

     Check: negative/imaginary core charge=   -0.000069    0.000000

     Initial potential from superposition of free atoms

     starting charge    7.99888, renormalised to    8.00000
     Starting wfc are    8 randomized atomic wfcs
     Checking if some PAW data can be deallocated... 

     total cpu time spent up to now is        0.4 secs

     per-process dynamical memory:    25.6 Mb

     Self-consistent Calculation

     iteration #  1     ecut=    15.00 Ry     beta=0.70
     Davidson diagonalization with overlap
     ethr =  1.00E-02,  avg # of iterations =  3.4

     Threshold (ethr) on eigenvalues was too large:
     Diagonalizing with lowered threshold

     Davidson diagonalization with overlap
     ethr =  7.15E-04,  avg # of iterations =  1.0

     total cpu time spent up to now is        0.7 secs

     total energy              =     -93.44854399 Ry
     Harris-Foulkes estimate   =     -93.46203274 Ry
     estimated scf accuracy    <       0.05678299 Ry

     iteration #  2     ecut=    15.00 Ry     beta=0.70
     Davidson diagonalization with overlap
     ethr =  7.10E-04,  avg # of iterations =  1.0

     total cpu time spent up to now is        0.9 secs

     total energy              =     -93.45091510 Ry
     Harris-Foulkes estimate   =     -93.45098758 Ry
     estimated scf accuracy    <       0.00211199 Ry

     iteration #  3     ecut=    15.00 Ry     beta=0.70
     Davidson diagonalization with overlap
     ethr =  2.64E-05,  avg # of iterations =  2.8

     total cpu time spent up to now is        1.1 secs

     total energy              =     -93.45099674 Ry
     Harris-Foulkes estimate   =     -93.45099280 Ry
     estimated scf accuracy    <       0.00004886 Ry

     iteration #  4     ecut=    15.00 Ry     beta=0.70
     Davidson diagonalization with overlap
     ethr =  6.11E-07,  avg # of iterations =  2.8

     total cpu time spent up to now is        1.3 secs

     End of self-consistent calculation

          k =-0.0833 0.0833 0.0833 (   271 PWs)   bands (ev):

    -5.6640   5.3745   6.0941   6.0941   8.8523   9.0270   9.0270  10.2346

          k =-0.2500 0.2500-0.0833 (   275 PWs)   bands (ev):

    -5.1854   3.2774   4.8413   5.8805   8.9582   9.4262   9.7907  11.9807

          k =-0.4167 0.4167-0.2500 (   264 PWs)   bands (ev):

    -4.0873   0.4980   4.3739   5.2338   8.4520   9.8250   9.8675  13.7539

          k = 0.4167-0.4167 0.5833 (   263 PWs)   bands (ev):

    -3.3834  -0.6540   4.4417   4.8467   8.2916   9.5391   9.9728  14.1803

          k = 0.2500-0.2500 0.4167 (   269 PWs)   bands (ev):

    -4.5014   1.3500   4.9073   4.9459   8.5404   9.5588  10.3624  12.2663

          k = 0.0833-0.0833 0.2500 (   270 PWs)   bands (ev):

    -5.4224   4.2993   5.4394   5.6307   8.5634   9.4692   9.9404  11.1328

          k =-0.0833 0.4167 0.0833 (   275 PWs)   bands (ev):

    -4.9431   3.0938   4.6858   4.6982   7.9762  10.1534  10.9563  11.1759

          k =-0.2500 0.5833-0.0833 (   267 PWs)   bands (ev):

    -4.0284   1.2445   3.3533   4.3067   8.3815  10.0195  10.8274  12.3109

          k = 0.5833-0.2500 0.7500 (   262 PWs)   bands (ev):

    -2.9044  -0.5201   2.7503   4.0766   8.6317  10.2093  12.1868  12.5677

          k = 0.4167-0.0833 0.5833 (   264 PWs)   bands (ev):

    -3.6313   0.5460   2.7054   4.5689   9.2391   9.8761  11.5673  12.0668

          k = 0.2500 0.0833 0.4167 (   270 PWs)   bands (ev):

    -4.7165   2.2491   4.0576   5.2470   8.8752   9.7637  10.8320  11.1842

          k =-0.0833 0.7500 0.0833 (   263 PWs)   bands (ev):

    -3.3137   0.4170   3.3150   3.6565   7.1422   8.1291  13.8823  13.9378

          k = 0.7500-0.0833 0.9167 (   262 PWs)   bands (ev):

    -2.1110  -0.9303   2.4653   3.2472   7.7723   8.9108  13.4103  14.8901

          k = 0.5833 0.0833 0.7500 (   264 PWs)   bands (ev):

    -2.4825  -0.5959   1.9801   3.7985   8.3995  11.3478  12.3405  13.0112

          k = 0.4167 0.2500 0.5833 (   262 PWs)   bands (ev):

    -3.5179  -0.1474   3.6594   4.6680   8.8570   9.4748  10.8217  13.0586

          k =-0.0833-0.9167 0.0833 (   261 PWs)   bands (ev):

    -2.2041  -0.9386   3.0419   3.4398   7.0295   7.5980  15.3855  15.4700

          k =-0.2500-0.7500-0.0833 (   261 PWs)   bands (ev):

    -3.1438   0.1914   2.7913   3.5906   7.9858   9.2814  12.0439  13.8850

          k =-0.0833-0.5833 0.0833 (   265 PWs)   bands (ev):

    -4.2351   1.7891   3.8657   4.0842   7.4672   9.0496  12.3282  12.5324

          k =-0.2500 0.2500 0.2500 (   274 PWs)   bands (ev):

    -4.9548   2.2909   5.4710   5.4710   8.2686   9.7704   9.7704  13.1409

          k =-0.4167 0.4167 0.0833 (   267 PWs)   bands (ev):

    -4.2723   1.3565   3.3176   5.2987   9.0371  10.2666  10.4527  12.3880

          k = 0.4167-0.4167 0.9167 (   265 PWs)   bands (ev):

    -3.0863  -0.0905   2.2015   4.5026   8.2822  11.6031  11.7227  13.4544

          k = 0.2500-0.2500 0.7500 (   262 PWs)   bands (ev):

    -3.0340  -0.1700   2.6853   4.0150   7.7781  10.7351  12.0054  12.2151

          k =-0.2500 0.5833 0.2500 (   265 PWs)   bands (ev):

    -3.8459   0.5427   3.7899   4.3918   8.2683  10.5191  11.1834  11.3374

          k = 0.5833-0.2500 1.0833 (   260 PWs)   bands (ev):

    -2.8384  -0.2014   2.3019   3.5892   9.4992  10.0375  11.0309  13.8089

          k = 0.4167-0.0833 0.9167 (   263 PWs)   bands (ev):

    -2.0028  -0.9380   2.1337   2.9152   9.2948  10.5742  11.3780  12.7790

          k =-0.2500-1.0833 0.2500 (   267 PWs)   bands (ev):

    -2.2143  -0.8453   2.0065   3.8175   7.4956  10.4448  13.3941  13.5915

          k =-0.4167 0.4167 0.4167 (   269 PWs)   bands (ev):

    -3.7557  -0.2512   5.0740   5.0740   7.8321   9.6659   9.6659  14.0589

          k = 0.4167-0.4167 1.2500 (   261 PWs)   bands (ev):

    -3.1470  -0.5531   3.2295   4.6302   8.4410  10.3362  10.6826  14.2714

     the Fermi energy is     6.5500 ev

!    total energy              =     -93.45100503 Ry
     Harris-Foulkes estimate   =     -93.45100496 Ry
     estimated scf accuracy    <       0.00000018 Ry

     total all-electron energy =     -1160.142741 Ry

     The total energy is the sum of the following terms:

     one-electron contribution =       5.73529388 Ry
     hartree contribution      =       1.09666155 Ry
     xc contribution           =     -12.25517102 Ry
     ewald contribution        =     -16.79708772 Ry
     one-center paw contrib.   =     -71.23070146 Ry
     smearing contrib. (-TS)   =      -0.00000026 Ry

     convergence has been achieved in   4 iterations

     Writing output data file SCF.save
 
     init_run     :      0.21s CPU      0.22s WALL (       1 calls)
     electrons    :      0.82s CPU      0.85s WALL (       1 calls)

     Called by init_run:
     wfcinit      :      0.03s CPU      0.04s WALL (       1 calls)
     potinit      :      0.07s CPU      0.08s WALL (       1 calls)

     Called by electrons:
     c_bands      :      0.43s CPU      0.45s WALL (       5 calls)
     sum_band     :      0.08s CPU      0.09s WALL (       5 calls)
     v_of_rho     :      0.01s CPU      0.01s WALL (       5 calls)
     newd         :      0.00s CPU      0.01s WALL (       5 calls)
     PAW_pot      :      0.36s CPU      0.37s WALL (       5 calls)
     mix_rho      :      0.00s CPU      0.00s WALL (       5 calls)

     Called by c_bands:
     init_us_2    :      0.02s CPU      0.01s WALL (     308 calls)
     cegterg      :      0.40s CPU      0.42s WALL (     140 calls)

     Called by sum_band:
     sum_band:bec :      0.00s CPU      0.00s WALL (     140 calls)
     addusdens    :      0.00s CPU      0.00s WALL (       5 calls)

     Called by *egterg:
     h_psi        :      0.34s CPU      0.35s WALL (     474 calls)
     s_psi        :      0.01s CPU      0.01s WALL (     474 calls)
     g_psi        :      0.00s CPU      0.00s WALL (     306 calls)
     cdiaghg      :      0.05s CPU      0.05s WALL (     418 calls)

     Called by h_psi:
     h_psi:pot    :      0.34s CPU      0.35s WALL (     474 calls)
     h_psi:calbec :      0.01s CPU      0.01s WALL (     474 calls)
     vloc_psi     :      0.32s CPU      0.33s WALL (     474 calls)
     add_vuspsi   :      0.01s CPU      0.01s WALL (     474 calls)

     General routines
     calbec       :      0.01s CPU      0.01s WALL (     614 calls)
     fft          :      0.00s CPU      0.00s WALL (      67 calls)
     fftw         :      0.37s CPU      0.35s WALL (    7010 calls)
     davcio       :      0.00s CPU      0.00s WALL (      28 calls)
 
     Parallel routines
     fft_scatter  :      0.03s CPU      0.04s WALL (    7077 calls)
 
     PWSCF        :     1.30s CPU         1.35s WALL

 
   This run was terminated on:   7:52: 7   9Sep2018            

=------------------------------------------------------------------------------=
   JOB DONE.
=------------------------------------------------------------------------------=
