
     Program PWSCF v.6.1 (svn rev. 13369) starts on  9Sep2018 at  7:52:10 

     This program is part of the open-source Quantum ESPRESSO suite
     for quantum simulation of materials; please cite
         "P. Giannozzi et al., J. Phys.:Condens. Matter 21 395502 (2009);
          URL http://www.quantum-espresso.org", 
     in publications or presentations arising from this work. More details at
     http://www.quantum-espresso.org/quote

     Parallel version (MPI), running on     1 processors
     Waiting for input...
     Reading input from standard input

     Current dimensions of program PWSCF are:
     Max number of different atomic species (ntypx) = 10
     Max number of k-points (npk) =  40000
     Max angular momentum in pseudopotentials (lmaxx) =  3
               file Si.pbe-n-kjpaw_psl.0.1.UPF: wavefunction(s)  3S renormalized

     Subspace diagonalization in iterative solution of the eigenvalue problem:
     a serial algorithm will be used

 
     G-vector sticks info
     --------------------
     sticks:   dense  smooth     PW     G-vecs:    dense   smooth      PW
     Sum         433     433    151                 5985     5985    1139
 


     bravais-lattice index     =            2
     lattice parameter (alat)  =      10.2623  a.u.
     unit-cell volume          =     270.1967 (a.u.)^3
     number of atoms/cell      =            2
     number of atomic types    =            1
     number of electrons       =         8.00
     number of Kohn-Sham states=            8
     kinetic-energy cutoff     =      30.0000  Ry
     charge density cutoff     =     120.0000  Ry
     convergence threshold     =      1.0E-06
     mixing beta               =       0.7000
     number of iterations used =            8  plain     mixing
     Exchange-correlation      =  SLA  PW   PBX  PBC ( 1  4  3  4 0 0)

     celldm(1)=  10.262347  celldm(2)=   0.000000  celldm(3)=   0.000000
     celldm(4)=   0.000000  celldm(5)=   0.000000  celldm(6)=   0.000000

     crystal axes: (cart. coord. in units of alat)
               a(1) = (  -0.500000   0.000000   0.500000 )  
               a(2) = (   0.000000   0.500000   0.500000 )  
               a(3) = (  -0.500000   0.500000   0.000000 )  

     reciprocal axes: (cart. coord. in units 2 pi/alat)
               b(1) = ( -1.000000 -1.000000  1.000000 )  
               b(2) = (  1.000000  1.000000  1.000000 )  
               b(3) = ( -1.000000  1.000000 -1.000000 )  


     PseudoPot. # 1 for Si read from file:
     /opt/home/guest1/upf_files/Si.pbe-n-kjpaw_psl.0.1.UPF
     MD5 check sum: b9d333a40e496bef61db012f150758bf
     Pseudo is Projector augmented-wave + core cor, Zval =  4.0
     Generated using "atomic" code by A. Dal Corso  v.5.0.2 svn rev. 9415
     Shape of augmentation charge: PSQ
     Using radial grid of 1141 points,  4 beta functions with: 
                l(1) =   0
                l(2) =   0
                l(3) =   1
                l(4) =   1
     Q(r) pseudized with 0 coefficients 


     atomic species   valence    mass     pseudopotential
        Si             4.00    28.08550     Si( 1.00)

     24 Sym. Ops. (no inversion) found
          (note: 24 additional sym.ops. were found but ignored
           their fractional translations are incommensurate with FFT grid)


   Cartesian axes

     site n.     atom                  positions (alat units)
         1           Si  tau(   1) = (   0.0000000   0.0000000   0.0000000  )
         2           Si  tau(   2) = (  -0.2500000   0.2500000   0.2500000  )

     number of k points=    28  Fermi-Dirac smearing, width (Ry)=  0.0036
                       cart. coord. in units 2pi/alat
        k(    1) = (  -0.0833333   0.0833333   0.0833333), wk =   0.0185185
        k(    2) = (  -0.2500000   0.2500000  -0.0833333), wk =   0.0555556
        k(    3) = (  -0.4166667   0.4166667  -0.2500000), wk =   0.0555556
        k(    4) = (   0.4166667  -0.4166667   0.5833333), wk =   0.0555556
        k(    5) = (   0.2500000  -0.2500000   0.4166667), wk =   0.0555556
        k(    6) = (   0.0833333  -0.0833333   0.2500000), wk =   0.0555556
        k(    7) = (  -0.0833333   0.4166667   0.0833333), wk =   0.0555556
        k(    8) = (  -0.2500000   0.5833333  -0.0833333), wk =   0.1111111
        k(    9) = (   0.5833333  -0.2500000   0.7500000), wk =   0.1111111
        k(   10) = (   0.4166667  -0.0833333   0.5833333), wk =   0.1111111
        k(   11) = (   0.2500000   0.0833333   0.4166667), wk =   0.1111111
        k(   12) = (  -0.0833333   0.7500000   0.0833333), wk =   0.0555556
        k(   13) = (   0.7500000  -0.0833333   0.9166667), wk =   0.1111111
        k(   14) = (   0.5833333   0.0833333   0.7500000), wk =   0.1111111
        k(   15) = (   0.4166667   0.2500000   0.5833333), wk =   0.1111111
        k(   16) = (  -0.0833333  -0.9166667   0.0833333), wk =   0.0555556
        k(   17) = (  -0.2500000  -0.7500000  -0.0833333), wk =   0.1111111
        k(   18) = (  -0.0833333  -0.5833333   0.0833333), wk =   0.0555556
        k(   19) = (  -0.2500000   0.2500000   0.2500000), wk =   0.0185185
        k(   20) = (  -0.4166667   0.4166667   0.0833333), wk =   0.0555556
        k(   21) = (   0.4166667  -0.4166667   0.9166667), wk =   0.0555556
        k(   22) = (   0.2500000  -0.2500000   0.7500000), wk =   0.0555556
        k(   23) = (  -0.2500000   0.5833333   0.2500000), wk =   0.0555556
        k(   24) = (   0.5833333  -0.2500000   1.0833333), wk =   0.1111111
        k(   25) = (   0.4166667  -0.0833333   0.9166667), wk =   0.1111111
        k(   26) = (  -0.2500000  -1.0833333   0.2500000), wk =   0.0555556
        k(   27) = (  -0.4166667   0.4166667   0.4166667), wk =   0.0185185
        k(   28) = (   0.4166667  -0.4166667   1.2500000), wk =   0.0555556

     Dense  grid:     5985 G-vectors     FFT dimensions: (  25,  25,  25)

     Estimated max dynamical RAM per process >       7.07MB

     Check: negative/imaginary core charge=   -0.000003    0.000000

     Initial potential from superposition of free atoms

     starting charge    7.99888, renormalised to    8.00000
     Starting wfc are    8 randomized atomic wfcs
     Checking if some PAW data can be deallocated... 

     total cpu time spent up to now is        0.5 secs

     per-process dynamical memory:    41.2 Mb

     Self-consistent Calculation

     iteration #  1     ecut=    30.00 Ry     beta=0.70
     Davidson diagonalization with overlap
     ethr =  1.00E-02,  avg # of iterations =  3.7

     Threshold (ethr) on eigenvalues was too large:
     Diagonalizing with lowered threshold

     Davidson diagonalization with overlap
     ethr =  7.29E-04,  avg # of iterations =  1.0

     total cpu time spent up to now is        1.3 secs

     total energy              =     -93.45123169 Ry
     Harris-Foulkes estimate   =     -93.46521725 Ry
     estimated scf accuracy    <       0.05765719 Ry

     iteration #  2     ecut=    30.00 Ry     beta=0.70
     Davidson diagonalization with overlap
     ethr =  7.21E-04,  avg # of iterations =  1.0

     total cpu time spent up to now is        1.6 secs

     total energy              =     -93.45373309 Ry
     Harris-Foulkes estimate   =     -93.45381315 Ry
     estimated scf accuracy    <       0.00211008 Ry

     iteration #  3     ecut=    30.00 Ry     beta=0.70
     Davidson diagonalization with overlap
     ethr =  2.64E-05,  avg # of iterations =  3.0

     total cpu time spent up to now is        2.0 secs

     total energy              =     -93.45381500 Ry
     Harris-Foulkes estimate   =     -93.45381163 Ry
     estimated scf accuracy    <       0.00005207 Ry

     iteration #  4     ecut=    30.00 Ry     beta=0.70
     Davidson diagonalization with overlap
     ethr =  6.51E-07,  avg # of iterations =  2.8

     total cpu time spent up to now is        2.4 secs

     End of self-consistent calculation

          k =-0.0833 0.0833 0.0833 (   737 PWs)   bands (ev):

    -5.6655   5.3512   6.0670   6.0670   8.8182   8.9886   8.9886  10.2228

          k =-0.2500 0.2500-0.0833 (   756 PWs)   bands (ev):

    -5.1868   3.2664   4.8245   5.8569   8.9251   9.3846   9.7446  11.9443

          k =-0.4167 0.4167-0.2500 (   752 PWs)   bands (ev):

    -4.0890   0.4921   4.3603   5.2170   8.4159   9.7667   9.8069  13.6968

          k = 0.4167-0.4167 0.5833 (   755 PWs)   bands (ev):

    -3.3857  -0.6587   4.4284   4.8340   8.2561   9.4807   9.9100  14.1324

          k = 0.2500-0.2500 0.4167 (   758 PWs)   bands (ev):

    -4.5031   1.3426   4.8931   4.9300   8.5026   9.5109  10.3046  12.1840

          k = 0.0833-0.0833 0.2500 (   755 PWs)   bands (ev):

    -5.4238   4.2818   5.4166   5.6071   8.5239   9.4351   9.8947  11.1029

          k =-0.0833 0.4167 0.0833 (   752 PWs)   bands (ev):

    -4.9446   3.0834   4.6699   4.6829   7.9367  10.1072  10.8962  11.1224

          k =-0.2500 0.5833-0.0833 (   750 PWs)   bands (ev):

    -4.0300   1.2378   3.3430   4.2947   8.3356   9.9607  10.7738  12.2370

          k = 0.5833-0.2500 0.7500 (   746 PWs)   bands (ev):

    -2.9066  -0.5244   2.7405   4.0655   8.5847  10.1492  12.1103  12.4925

          k = 0.4167-0.0833 0.5833 (   755 PWs)   bands (ev):

    -3.6333   0.5407   2.6960   4.5556   9.1927   9.8187  11.5044  11.9817

          k = 0.2500 0.0833 0.4167 (   756 PWs)   bands (ev):

    -4.7180   2.2404   4.0438   5.2289   8.8310   9.7248  10.7772  11.1098

          k =-0.0833 0.7500 0.0833 (   752 PWs)   bands (ev):

    -3.3156   0.4115   3.3062   3.6494   7.1014   8.0749  13.8002  13.8483

          k = 0.7500-0.0833 0.9167 (   745 PWs)   bands (ev):

    -2.1136  -0.9337   2.4575   3.2391   7.7264   8.8536  13.3331  14.8160

          k = 0.5833 0.0833 0.7500 (   743 PWs)   bands (ev):

    -2.4848  -0.5998   1.9721   3.7879   8.3499  11.2715  12.2661  12.9473

          k = 0.4167 0.2500 0.5833 (   752 PWs)   bands (ev):

    -3.5200  -0.1525   3.6470   4.6545   8.8142   9.4155  10.7538  12.9753

          k =-0.0833-0.9167 0.0833 (   749 PWs)   bands (ev):

    -2.2065  -0.9421   3.0350   3.4332   6.9854   7.5547  15.2864  15.3839

          k =-0.2500-0.7500-0.0833 (   750 PWs)   bands (ev):

    -3.1458   0.1865   2.7823   3.5812   7.9392   9.2220  11.9749  13.7955

          k =-0.0833-0.5833 0.0833 (   745 PWs)   bands (ev):

    -4.2367   1.7814   3.8547   4.0736   7.4261   8.9923  12.2575  12.4539

          k =-0.2500 0.2500 0.2500 (   754 PWs)   bands (ev):

    -4.9562   2.2819   5.4507   5.4507   8.2353   9.7205   9.7205  13.1166

          k =-0.4167 0.4167 0.0833 (   750 PWs)   bands (ev):

    -4.2738   1.3494   3.3069   5.2812   8.9939  10.2164  10.3897  12.3409

          k = 0.4167-0.4167 0.9167 (   751 PWs)   bands (ev):

    -3.0885  -0.0951   2.1928   4.4899   8.2359  11.5377  11.6503  13.3909

          k = 0.2500-0.2500 0.7500 (   748 PWs)   bands (ev):

    -3.0363  -0.1746   2.6755   4.0049   7.7324  10.6620  11.9532  12.1357

          k =-0.2500 0.5833 0.2500 (   754 PWs)   bands (ev):

    -3.8477   0.5372   3.7776   4.3800   8.2222  10.4682  11.1107  11.2648

          k = 0.5833-0.2500 1.0833 (   746 PWs)   bands (ev):

    -2.8406  -0.2058   2.2930   3.5781   9.4405   9.9796  10.9674  13.7090

          k = 0.4167-0.0833 0.9167 (   745 PWs)   bands (ev):

    -2.0053  -0.9415   2.1256   2.9060   9.2367  10.5008  11.3212  12.7086

          k =-0.2500-1.0833 0.2500 (   744 PWs)   bands (ev):

    -2.2167  -0.8488   1.9987   3.8094   7.4525  10.3772  13.3151  13.5225

          k =-0.4167 0.4167 0.4167 (   760 PWs)   bands (ev):

    -3.7575  -0.2562   5.0611   5.0611   7.8009   9.6100   9.6100  14.0205

          k = 0.4167-0.4167 1.2500 (   749 PWs)   bands (ev):

    -3.1491  -0.5576   3.2188   4.6177   8.3978  10.2789  10.6114  14.1909

     the Fermi energy is     6.5146 ev

!    total energy              =     -93.45382589 Ry
     Harris-Foulkes estimate   =     -93.45382582 Ry
     estimated scf accuracy    <       0.00000013 Ry

     total all-electron energy =     -1160.145562 Ry

     The total energy is the sum of the following terms:

     one-electron contribution =       5.73588197 Ry
     hartree contribution      =       1.09750676 Ry
     xc contribution           =     -12.25533942 Ry
     ewald contribution        =     -16.79708774 Ry
     one-center paw contrib.   =     -71.23478714 Ry
     smearing contrib. (-TS)   =      -0.00000031 Ry

     convergence has been achieved in   4 iterations

     Writing output data file SCF.save
 
     init_run     :      0.33s CPU      0.34s WALL (       1 calls)
     electrons    :      1.81s CPU      1.84s WALL (       1 calls)

     Called by init_run:
     wfcinit      :      0.10s CPU      0.10s WALL (       1 calls)
     potinit      :      0.08s CPU      0.08s WALL (       1 calls)

     Called by electrons:
     c_bands      :      1.23s CPU      1.25s WALL (       5 calls)
     sum_band     :      0.26s CPU      0.27s WALL (       5 calls)
     v_of_rho     :      0.03s CPU      0.03s WALL (       5 calls)
     newd         :      0.01s CPU      0.01s WALL (       5 calls)
     PAW_pot      :      0.35s CPU      0.36s WALL (       5 calls)
     mix_rho      :      0.00s CPU      0.00s WALL (       5 calls)

     Called by c_bands:
     init_us_2    :      0.04s CPU      0.04s WALL (     308 calls)
     cegterg      :      1.15s CPU      1.17s WALL (     140 calls)

     Called by sum_band:
     sum_band:bec :      0.00s CPU      0.00s WALL (     140 calls)
     addusdens    :      0.01s CPU      0.01s WALL (       5 calls)

     Called by *egterg:
     h_psi        :      1.06s CPU      1.08s WALL (     491 calls)
     s_psi        :      0.02s CPU      0.02s WALL (     491 calls)
     g_psi        :      0.01s CPU      0.01s WALL (     323 calls)
     cdiaghg      :      0.06s CPU      0.06s WALL (     435 calls)

     Called by h_psi:
     h_psi:pot    :      1.05s CPU      1.07s WALL (     491 calls)
     h_psi:calbec :      0.02s CPU      0.02s WALL (     491 calls)
     vloc_psi     :      1.01s CPU      1.03s WALL (     491 calls)
     add_vuspsi   :      0.02s CPU      0.02s WALL (     491 calls)

     General routines
     calbec       :      0.03s CPU      0.03s WALL (     631 calls)
     fft          :      0.01s CPU      0.01s WALL (      67 calls)
     fftw         :      1.09s CPU      1.10s WALL (    7110 calls)
     davcio       :      0.00s CPU      0.01s WALL (      28 calls)
 
     Parallel routines
     fft_scatter  :      0.11s CPU      0.12s WALL (    7177 calls)
 
     PWSCF        :     2.39s CPU         2.46s WALL

 
   This run was terminated on:   7:52:13   9Sep2018            

=------------------------------------------------------------------------------=
   JOB DONE.
=------------------------------------------------------------------------------=
