
     Program PWSCF v.6.1 (svn rev. 13369) starts on  9Sep2018 at  7:52: 7 

     This program is part of the open-source Quantum ESPRESSO suite
     for quantum simulation of materials; please cite
         "P. Giannozzi et al., J. Phys.:Condens. Matter 21 395502 (2009);
          URL http://www.quantum-espresso.org", 
     in publications or presentations arising from this work. More details at
     http://www.quantum-espresso.org/quote

     Parallel version (MPI), running on     1 processors
     Waiting for input...
     Reading input from standard input

     Current dimensions of program PWSCF are:
     Max number of different atomic species (ntypx) = 10
     Max number of k-points (npk) =  40000
     Max angular momentum in pseudopotentials (lmaxx) =  3
               file Si.pbe-n-kjpaw_psl.0.1.UPF: wavefunction(s)  3S renormalized

     Subspace diagonalization in iterative solution of the eigenvalue problem:
     a serial algorithm will be used

 
     G-vector sticks info
     --------------------
     sticks:   dense  smooth     PW     G-vecs:    dense   smooth      PW
     Sum         295     295    109                 3287     3287     701
 


     bravais-lattice index     =            2
     lattice parameter (alat)  =      10.2623  a.u.
     unit-cell volume          =     270.1967 (a.u.)^3
     number of atoms/cell      =            2
     number of atomic types    =            1
     number of electrons       =         8.00
     number of Kohn-Sham states=            8
     kinetic-energy cutoff     =      20.0000  Ry
     charge density cutoff     =      80.0000  Ry
     convergence threshold     =      1.0E-06
     mixing beta               =       0.7000
     number of iterations used =            8  plain     mixing
     Exchange-correlation      =  SLA  PW   PBX  PBC ( 1  4  3  4 0 0)

     celldm(1)=  10.262347  celldm(2)=   0.000000  celldm(3)=   0.000000
     celldm(4)=   0.000000  celldm(5)=   0.000000  celldm(6)=   0.000000

     crystal axes: (cart. coord. in units of alat)
               a(1) = (  -0.500000   0.000000   0.500000 )  
               a(2) = (   0.000000   0.500000   0.500000 )  
               a(3) = (  -0.500000   0.500000   0.000000 )  

     reciprocal axes: (cart. coord. in units 2 pi/alat)
               b(1) = ( -1.000000 -1.000000  1.000000 )  
               b(2) = (  1.000000  1.000000  1.000000 )  
               b(3) = ( -1.000000  1.000000 -1.000000 )  


     PseudoPot. # 1 for Si read from file:
     /opt/home/guest1/upf_files/Si.pbe-n-kjpaw_psl.0.1.UPF
     MD5 check sum: b9d333a40e496bef61db012f150758bf
     Pseudo is Projector augmented-wave + core cor, Zval =  4.0
     Generated using "atomic" code by A. Dal Corso  v.5.0.2 svn rev. 9415
     Shape of augmentation charge: PSQ
     Using radial grid of 1141 points,  4 beta functions with: 
                l(1) =   0
                l(2) =   0
                l(3) =   1
                l(4) =   1
     Q(r) pseudized with 0 coefficients 


     atomic species   valence    mass     pseudopotential
        Si             4.00    28.08550     Si( 1.00)

     48 Sym. Ops., with inversion, found (24 have fractional translation)



   Cartesian axes

     site n.     atom                  positions (alat units)
         1           Si  tau(   1) = (   0.0000000   0.0000000   0.0000000  )
         2           Si  tau(   2) = (  -0.2500000   0.2500000   0.2500000  )

     number of k points=    28  Fermi-Dirac smearing, width (Ry)=  0.0036
                       cart. coord. in units 2pi/alat
        k(    1) = (  -0.0833333   0.0833333   0.0833333), wk =   0.0185185
        k(    2) = (  -0.2500000   0.2500000  -0.0833333), wk =   0.0555556
        k(    3) = (  -0.4166667   0.4166667  -0.2500000), wk =   0.0555556
        k(    4) = (   0.4166667  -0.4166667   0.5833333), wk =   0.0555556
        k(    5) = (   0.2500000  -0.2500000   0.4166667), wk =   0.0555556
        k(    6) = (   0.0833333  -0.0833333   0.2500000), wk =   0.0555556
        k(    7) = (  -0.0833333   0.4166667   0.0833333), wk =   0.0555556
        k(    8) = (  -0.2500000   0.5833333  -0.0833333), wk =   0.1111111
        k(    9) = (   0.5833333  -0.2500000   0.7500000), wk =   0.1111111
        k(   10) = (   0.4166667  -0.0833333   0.5833333), wk =   0.1111111
        k(   11) = (   0.2500000   0.0833333   0.4166667), wk =   0.1111111
        k(   12) = (  -0.0833333   0.7500000   0.0833333), wk =   0.0555556
        k(   13) = (   0.7500000  -0.0833333   0.9166667), wk =   0.1111111
        k(   14) = (   0.5833333   0.0833333   0.7500000), wk =   0.1111111
        k(   15) = (   0.4166667   0.2500000   0.5833333), wk =   0.1111111
        k(   16) = (  -0.0833333  -0.9166667   0.0833333), wk =   0.0555556
        k(   17) = (  -0.2500000  -0.7500000  -0.0833333), wk =   0.1111111
        k(   18) = (  -0.0833333  -0.5833333   0.0833333), wk =   0.0555556
        k(   19) = (  -0.2500000   0.2500000   0.2500000), wk =   0.0185185
        k(   20) = (  -0.4166667   0.4166667   0.0833333), wk =   0.0555556
        k(   21) = (   0.4166667  -0.4166667   0.9166667), wk =   0.0555556
        k(   22) = (   0.2500000  -0.2500000   0.7500000), wk =   0.0555556
        k(   23) = (  -0.2500000   0.5833333   0.2500000), wk =   0.0555556
        k(   24) = (   0.5833333  -0.2500000   1.0833333), wk =   0.1111111
        k(   25) = (   0.4166667  -0.0833333   0.9166667), wk =   0.1111111
        k(   26) = (  -0.2500000  -1.0833333   0.2500000), wk =   0.0555556
        k(   27) = (  -0.4166667   0.4166667   0.4166667), wk =   0.0185185
        k(   28) = (   0.4166667  -0.4166667   1.2500000), wk =   0.0555556

     Dense  grid:     3287 G-vectors     FFT dimensions: (  24,  24,  24)

     Estimated max dynamical RAM per process >       4.24MB

     Check: negative/imaginary core charge=   -0.000010    0.000000

     Initial potential from superposition of free atoms

     starting charge    7.99888, renormalised to    8.00000
     Starting wfc are    8 randomized atomic wfcs
     Checking if some PAW data can be deallocated... 

     total cpu time spent up to now is        0.5 secs

     per-process dynamical memory:    32.0 Mb

     Self-consistent Calculation

     iteration #  1     ecut=    20.00 Ry     beta=0.70
     Davidson diagonalization with overlap
     ethr =  1.00E-02,  avg # of iterations =  3.5

     Threshold (ethr) on eigenvalues was too large:
     Diagonalizing with lowered threshold

     Davidson diagonalization with overlap
     ethr =  7.23E-04,  avg # of iterations =  1.0

     total cpu time spent up to now is        1.0 secs

     total energy              =     -93.45005233 Ry
     Harris-Foulkes estimate   =     -93.46382489 Ry
     estimated scf accuracy    <       0.05730398 Ry

     iteration #  2     ecut=    20.00 Ry     beta=0.70
     Davidson diagonalization with overlap
     ethr =  7.16E-04,  avg # of iterations =  1.0

     total cpu time spent up to now is        1.2 secs

     total energy              =     -93.45249955 Ry
     Harris-Foulkes estimate   =     -93.45257958 Ry
     estimated scf accuracy    <       0.00211522 Ry

     iteration #  3     ecut=    20.00 Ry     beta=0.70
     Davidson diagonalization with overlap
     ethr =  2.64E-05,  avg # of iterations =  3.0

     total cpu time spent up to now is        1.5 secs

     total energy              =     -93.45258002 Ry
     Harris-Foulkes estimate   =     -93.45257661 Ry
     estimated scf accuracy    <       0.00005093 Ry

     iteration #  4     ecut=    20.00 Ry     beta=0.70
     Davidson diagonalization with overlap
     ethr =  6.37E-07,  avg # of iterations =  2.8

     total cpu time spent up to now is        1.8 secs

     End of self-consistent calculation

          k =-0.0833 0.0833 0.0833 (   405 PWs)   bands (ev):

    -5.6658   5.3589   6.0764   6.0764   8.8273   8.9990   8.9990  10.2259

          k =-0.2500 0.2500-0.0833 (   399 PWs)   bands (ev):

    -5.1871   3.2694   4.8292   5.8646   8.9355   9.3973   9.7594  11.9549

          k =-0.4167 0.4167-0.2500 (   409 PWs)   bands (ev):

    -4.0892   0.4925   4.3634   5.2210   8.4260   9.7847   9.8251  13.7129

          k = 0.4167-0.4167 0.5833 (   407 PWs)   bands (ev):

    -3.3856  -0.6588   4.4314   4.8371   8.2684   9.4987   9.9287  14.1445

          k = 0.2500-0.2500 0.4167 (   405 PWs)   bands (ev):

    -4.5033   1.3437   4.8969   4.9345   8.5127   9.5255  10.3240  12.2129

          k = 0.0833-0.0833 0.2500 (   401 PWs)   bands (ev):

    -5.4241   4.2867   5.4232   5.6144   8.5348   9.4458   9.9098  11.1120

          k =-0.0833 0.4167 0.0833 (   404 PWs)   bands (ev):

    -4.9449   3.0864   4.6740   4.6865   7.9478  10.1217  10.9207  11.1437

          k =-0.2500 0.5833-0.0833 (   409 PWs)   bands (ev):

    -4.0303   1.2390   3.3447   4.2971   8.3495   9.9811  10.7925  12.2610

          k = 0.5833-0.2500 0.7500 (   409 PWs)   bands (ev):

    -2.9066  -0.5243   2.7421   4.0676   8.5995  10.1686  12.1367  12.5150

          k = 0.4167-0.0833 0.5833 (   411 PWs)   bands (ev):

    -3.6335   0.5414   2.6974   4.5586   9.2072   9.8364  11.5242  12.0081

          k = 0.2500 0.0833 0.4167 (   404 PWs)   bands (ev):

    -4.7183   2.2423   4.0468   5.2338   8.8443   9.7362  10.7963  11.1372

          k =-0.0833 0.7500 0.0833 (   413 PWs)   bands (ev):

    -3.3158   0.4125   3.3072   3.6502   7.1133   8.0922  13.8260  13.8764

          k = 0.7500-0.0833 0.9167 (   411 PWs)   bands (ev):

    -2.1135  -0.9333   2.4582   3.2399   7.7411   8.8720  13.3579  14.8370

          k = 0.5833 0.0833 0.7500 (   405 PWs)   bands (ev):

    -2.4847  -0.5994   1.9729   3.7896   8.3656  11.2968  12.2911  12.9674

          k = 0.4167 0.2500 0.5833 (   407 PWs)   bands (ev):

    -3.5201  -0.1523   3.6495   4.6575   8.8270   9.4334  10.7756  13.0009

          k =-0.0833-0.9167 0.0833 (   413 PWs)   bands (ev):

    -2.2066  -0.9416   3.0356   3.4335   6.9986   7.5703  15.3143  15.4105

          k =-0.2500-0.7500-0.0833 (   410 PWs)   bands (ev):

    -3.1459   0.1872   2.7835   3.5825   7.9534   9.2417  11.9964  13.8234

          k =-0.0833-0.5833 0.0833 (   413 PWs)   bands (ev):

    -4.2370   1.7832   3.8565   4.0752   7.4372   9.0102  12.2795  12.4777

          k =-0.2500 0.2500 0.2500 (   401 PWs)   bands (ev):

    -4.9565   2.2840   5.4562   5.4562   8.2436   9.7347   9.7347  13.1230

          k =-0.4167 0.4167 0.0833 (   404 PWs)   bands (ev):

    -4.2741   1.3505   3.3089   5.2861   9.0066  10.2327  10.4103  12.3559

          k = 0.4167-0.4167 0.9167 (   406 PWs)   bands (ev):

    -3.0885  -0.0947   2.1940   4.4923   8.2501  11.5584  11.6757  13.4106

          k = 0.2500-0.2500 0.7500 (   412 PWs)   bands (ev):

    -3.0364  -0.1742   2.6769   4.0063   7.7468  10.6846  11.9705  12.1612

          k =-0.2500 0.5833 0.2500 (   412 PWs)   bands (ev):

    -3.8479   0.5377   3.7800   4.3823   8.2361  10.4850  11.1344  11.2867

          k = 0.5833-0.2500 1.0833 (   409 PWs)   bands (ev):

    -2.8406  -0.2054   2.2940   3.5799   9.4588   9.9993  10.9872  13.7399

          k = 0.4167-0.0833 0.9167 (   405 PWs)   bands (ev):

    -2.0051  -0.9411   2.1265   2.9072   9.2560  10.5253  11.3390  12.7312

          k =-0.2500-1.0833 0.2500 (   410 PWs)   bands (ev):

    -2.2165  -0.8485   1.9994   3.8105   7.4667  10.3987  13.3394  13.5462

          k =-0.4167 0.4167 0.4167 (   413 PWs)   bands (ev):

    -3.7576  -0.2562   5.0641   5.0641   7.8102   9.6295   9.6295  14.0279

          k = 0.4167-0.4167 1.2500 (   406 PWs)   bands (ev):

    -3.1491  -0.5576   3.2207   4.6205   8.4123  10.2980  10.6345  14.2154

     the Fermi energy is     6.5258 ev

!    total energy              =     -93.45258912 Ry
     Harris-Foulkes estimate   =     -93.45258901 Ry
     estimated scf accuracy    <       0.00000013 Ry

     total all-electron energy =     -1160.144325 Ry

     The total energy is the sum of the following terms:

     one-electron contribution =       5.73746071 Ry
     hartree contribution      =       1.09697882 Ry
     xc contribution           =     -12.25458724 Ry
     ewald contribution        =     -16.79708772 Ry
     one-center paw contrib.   =     -71.23535338 Ry
     smearing contrib. (-TS)   =      -0.00000030 Ry

     convergence has been achieved in   4 iterations

     Writing output data file SCF.save
 
     init_run     :      0.27s CPU      0.27s WALL (       1 calls)
     electrons    :      1.28s CPU      1.31s WALL (       1 calls)

     Called by init_run:
     wfcinit      :      0.06s CPU      0.07s WALL (       1 calls)
     potinit      :      0.08s CPU      0.08s WALL (       1 calls)

     Called by electrons:
     c_bands      :      0.79s CPU      0.81s WALL (       5 calls)
     sum_band     :      0.17s CPU      0.18s WALL (       5 calls)
     v_of_rho     :      0.03s CPU      0.03s WALL (       5 calls)
     newd         :      0.01s CPU      0.01s WALL (       5 calls)
     PAW_pot      :      0.36s CPU      0.36s WALL (       5 calls)
     mix_rho      :      0.00s CPU      0.00s WALL (       5 calls)

     Called by c_bands:
     init_us_2    :      0.02s CPU      0.02s WALL (     308 calls)
     cegterg      :      0.75s CPU      0.77s WALL (     140 calls)

     Called by sum_band:
     sum_band:bec :      0.00s CPU      0.00s WALL (     140 calls)
     addusdens    :      0.01s CPU      0.01s WALL (       5 calls)

     Called by *egterg:
     h_psi        :      0.69s CPU      0.70s WALL (     484 calls)
     s_psi        :      0.01s CPU      0.01s WALL (     484 calls)
     g_psi        :      0.00s CPU      0.00s WALL (     316 calls)
     cdiaghg      :      0.05s CPU      0.06s WALL (     428 calls)

     Called by h_psi:
     h_psi:pot    :      0.68s CPU      0.70s WALL (     484 calls)
     h_psi:calbec :      0.02s CPU      0.01s WALL (     484 calls)
     vloc_psi     :      0.65s CPU      0.67s WALL (     484 calls)
     add_vuspsi   :      0.01s CPU      0.01s WALL (     484 calls)

     General routines
     calbec       :      0.02s CPU      0.02s WALL (     624 calls)
     fft          :      0.01s CPU      0.01s WALL (      67 calls)
     fftw         :      0.71s CPU      0.70s WALL (    7068 calls)
     davcio       :      0.00s CPU      0.00s WALL (      28 calls)
 
     Parallel routines
     fft_scatter  :      0.07s CPU      0.08s WALL (    7135 calls)
 
     PWSCF        :     1.81s CPU         1.85s WALL

 
   This run was terminated on:   7:52: 8   9Sep2018            

=------------------------------------------------------------------------------=
   JOB DONE.
=------------------------------------------------------------------------------=
