
     Program PWSCF v.6.1 (svn rev. 13369) starts on  9Sep2018 at  7:52: 8 

     This program is part of the open-source Quantum ESPRESSO suite
     for quantum simulation of materials; please cite
         "P. Giannozzi et al., J. Phys.:Condens. Matter 21 395502 (2009);
          URL http://www.quantum-espresso.org", 
     in publications or presentations arising from this work. More details at
     http://www.quantum-espresso.org/quote

     Parallel version (MPI), running on     1 processors
     Waiting for input...
     Reading input from standard input

     Current dimensions of program PWSCF are:
     Max number of different atomic species (ntypx) = 10
     Max number of k-points (npk) =  40000
     Max angular momentum in pseudopotentials (lmaxx) =  3
               file Si.pbe-n-kjpaw_psl.0.1.UPF: wavefunction(s)  3S renormalized

     Subspace diagonalization in iterative solution of the eigenvalue problem:
     a serial algorithm will be used

 
     G-vector sticks info
     --------------------
     sticks:   dense  smooth     PW     G-vecs:    dense   smooth      PW
     Sum         361     361    121                 4573     4573     941
 


     bravais-lattice index     =            2
     lattice parameter (alat)  =      10.2623  a.u.
     unit-cell volume          =     270.1967 (a.u.)^3
     number of atoms/cell      =            2
     number of atomic types    =            1
     number of electrons       =         8.00
     number of Kohn-Sham states=            8
     kinetic-energy cutoff     =      25.0000  Ry
     charge density cutoff     =     100.0000  Ry
     convergence threshold     =      1.0E-06
     mixing beta               =       0.7000
     number of iterations used =            8  plain     mixing
     Exchange-correlation      =  SLA  PW   PBX  PBC ( 1  4  3  4 0 0)

     celldm(1)=  10.262347  celldm(2)=   0.000000  celldm(3)=   0.000000
     celldm(4)=   0.000000  celldm(5)=   0.000000  celldm(6)=   0.000000

     crystal axes: (cart. coord. in units of alat)
               a(1) = (  -0.500000   0.000000   0.500000 )  
               a(2) = (   0.000000   0.500000   0.500000 )  
               a(3) = (  -0.500000   0.500000   0.000000 )  

     reciprocal axes: (cart. coord. in units 2 pi/alat)
               b(1) = ( -1.000000 -1.000000  1.000000 )  
               b(2) = (  1.000000  1.000000  1.000000 )  
               b(3) = ( -1.000000  1.000000 -1.000000 )  


     PseudoPot. # 1 for Si read from file:
     /opt/home/guest1/upf_files/Si.pbe-n-kjpaw_psl.0.1.UPF
     MD5 check sum: b9d333a40e496bef61db012f150758bf
     Pseudo is Projector augmented-wave + core cor, Zval =  4.0
     Generated using "atomic" code by A. Dal Corso  v.5.0.2 svn rev. 9415
     Shape of augmentation charge: PSQ
     Using radial grid of 1141 points,  4 beta functions with: 
                l(1) =   0
                l(2) =   0
                l(3) =   1
                l(4) =   1
     Q(r) pseudized with 0 coefficients 


     atomic species   valence    mass     pseudopotential
        Si             4.00    28.08550     Si( 1.00)

     48 Sym. Ops., with inversion, found (24 have fractional translation)



   Cartesian axes

     site n.     atom                  positions (alat units)
         1           Si  tau(   1) = (   0.0000000   0.0000000   0.0000000  )
         2           Si  tau(   2) = (  -0.2500000   0.2500000   0.2500000  )

     number of k points=    28  Fermi-Dirac smearing, width (Ry)=  0.0036
                       cart. coord. in units 2pi/alat
        k(    1) = (  -0.0833333   0.0833333   0.0833333), wk =   0.0185185
        k(    2) = (  -0.2500000   0.2500000  -0.0833333), wk =   0.0555556
        k(    3) = (  -0.4166667   0.4166667  -0.2500000), wk =   0.0555556
        k(    4) = (   0.4166667  -0.4166667   0.5833333), wk =   0.0555556
        k(    5) = (   0.2500000  -0.2500000   0.4166667), wk =   0.0555556
        k(    6) = (   0.0833333  -0.0833333   0.2500000), wk =   0.0555556
        k(    7) = (  -0.0833333   0.4166667   0.0833333), wk =   0.0555556
        k(    8) = (  -0.2500000   0.5833333  -0.0833333), wk =   0.1111111
        k(    9) = (   0.5833333  -0.2500000   0.7500000), wk =   0.1111111
        k(   10) = (   0.4166667  -0.0833333   0.5833333), wk =   0.1111111
        k(   11) = (   0.2500000   0.0833333   0.4166667), wk =   0.1111111
        k(   12) = (  -0.0833333   0.7500000   0.0833333), wk =   0.0555556
        k(   13) = (   0.7500000  -0.0833333   0.9166667), wk =   0.1111111
        k(   14) = (   0.5833333   0.0833333   0.7500000), wk =   0.1111111
        k(   15) = (   0.4166667   0.2500000   0.5833333), wk =   0.1111111
        k(   16) = (  -0.0833333  -0.9166667   0.0833333), wk =   0.0555556
        k(   17) = (  -0.2500000  -0.7500000  -0.0833333), wk =   0.1111111
        k(   18) = (  -0.0833333  -0.5833333   0.0833333), wk =   0.0555556
        k(   19) = (  -0.2500000   0.2500000   0.2500000), wk =   0.0185185
        k(   20) = (  -0.4166667   0.4166667   0.0833333), wk =   0.0555556
        k(   21) = (   0.4166667  -0.4166667   0.9166667), wk =   0.0555556
        k(   22) = (   0.2500000  -0.2500000   0.7500000), wk =   0.0555556
        k(   23) = (  -0.2500000   0.5833333   0.2500000), wk =   0.0555556
        k(   24) = (   0.5833333  -0.2500000   1.0833333), wk =   0.1111111
        k(   25) = (   0.4166667  -0.0833333   0.9166667), wk =   0.1111111
        k(   26) = (  -0.2500000  -1.0833333   0.2500000), wk =   0.0555556
        k(   27) = (  -0.4166667   0.4166667   0.4166667), wk =   0.0185185
        k(   28) = (   0.4166667  -0.4166667   1.2500000), wk =   0.0555556

     Dense  grid:     4573 G-vectors     FFT dimensions: (  24,  24,  24)

     Estimated max dynamical RAM per process >       5.53MB

     Check: negative/imaginary core charge=   -0.000013    0.000000

     Initial potential from superposition of free atoms

     starting charge    7.99888, renormalised to    8.00000
     Starting wfc are    8 randomized atomic wfcs
     Checking if some PAW data can be deallocated... 

     total cpu time spent up to now is        0.5 secs

     per-process dynamical memory:    38.9 Mb

     Self-consistent Calculation

     iteration #  1     ecut=    25.00 Ry     beta=0.70
     Davidson diagonalization with overlap
     ethr =  1.00E-02,  avg # of iterations =  3.7

     Threshold (ethr) on eigenvalues was too large:
     Diagonalizing with lowered threshold

     Davidson diagonalization with overlap
     ethr =  7.27E-04,  avg # of iterations =  1.0

     total cpu time spent up to now is        1.1 secs

     total energy              =     -93.45111679 Ry
     Harris-Foulkes estimate   =     -93.46503190 Ry
     estimated scf accuracy    <       0.05762327 Ry

     iteration #  2     ecut=    25.00 Ry     beta=0.70
     Davidson diagonalization with overlap
     ethr =  7.20E-04,  avg # of iterations =  1.0

     total cpu time spent up to now is        1.3 secs

     total energy              =     -93.45360232 Ry
     Harris-Foulkes estimate   =     -93.45368171 Ry
     estimated scf accuracy    <       0.00211444 Ry

     iteration #  3     ecut=    25.00 Ry     beta=0.70
     Davidson diagonalization with overlap
     ethr =  2.64E-05,  avg # of iterations =  2.9

     total cpu time spent up to now is        1.6 secs

     total energy              =     -93.45368445 Ry
     Harris-Foulkes estimate   =     -93.45368105 Ry
     estimated scf accuracy    <       0.00005185 Ry

     iteration #  4     ecut=    25.00 Ry     beta=0.70
     Davidson diagonalization with overlap
     ethr =  6.48E-07,  avg # of iterations =  2.8

     total cpu time spent up to now is        1.9 secs

     End of self-consistent calculation

          k =-0.0833 0.0833 0.0833 (   555 PWs)   bands (ev):

    -5.6653   5.3524   6.0684   6.0684   8.8214   8.9932   8.9932  10.2235

          k =-0.2500 0.2500-0.0833 (   566 PWs)   bands (ev):

    -5.1866   3.2670   4.8254   5.8580   8.9279   9.3892   9.7486  11.9473

          k =-0.4167 0.4167-0.2500 (   577 PWs)   bands (ev):

    -4.0890   0.4923   4.3608   5.2175   8.4186   9.7717   9.8115  13.7013

          k = 0.4167-0.4167 0.5833 (   573 PWs)   bands (ev):

    -3.3856  -0.6586   4.4289   4.8344   8.2587   9.4856   9.9152  14.1372

          k = 0.2500-0.2500 0.4167 (   573 PWs)   bands (ev):

    -4.5030   1.3429   4.8937   4.9308   8.5055   9.5153  10.3097  12.1899

          k = 0.0833-0.0833 0.2500 (   564 PWs)   bands (ev):

    -5.4237   4.2826   5.4177   5.6083   8.5275   9.4384   9.8986  11.1050

          k =-0.0833 0.4167 0.0833 (   574 PWs)   bands (ev):

    -4.9445   3.0838   4.6706   4.6835   7.9400  10.1109  10.9013  11.1273

          k =-0.2500 0.5833-0.0833 (   572 PWs)   bands (ev):

    -4.0300   1.2380   3.3435   4.2951   8.3395   9.9658  10.7788  12.2432

          k = 0.5833-0.2500 0.7500 (   567 PWs)   bands (ev):

    -2.9065  -0.5243   2.7409   4.0660   8.5888  10.1541  12.1171  12.4981

          k = 0.4167-0.0833 0.5833 (   570 PWs)   bands (ev):

    -3.6332   0.5409   2.6965   4.5561   9.1969   9.8234  11.5095  11.9884

          k = 0.2500 0.0833 0.4167 (   569 PWs)   bands (ev):

    -4.7180   2.2408   4.0445   5.2297   8.8350   9.7284  10.7824  11.1157

          k =-0.0833 0.7500 0.0833 (   571 PWs)   bands (ev):

    -3.3156   0.4116   3.3064   3.6496   7.1053   8.0794  13.8062  13.8569

          k = 0.7500-0.0833 0.9167 (   573 PWs)   bands (ev):

    -2.1136  -0.9337   2.4578   3.2393   7.7305   8.8580  13.3393  14.8225

          k = 0.5833 0.0833 0.7500 (   568 PWs)   bands (ev):

    -2.4848  -0.5998   1.9725   3.7883   8.3543  11.2777  12.2718  12.9530

          k = 0.4167 0.2500 0.5833 (   571 PWs)   bands (ev):

    -3.5199  -0.1523   3.6474   4.6550   8.8176   9.4205  10.7596  12.9813

          k =-0.0833-0.9167 0.0833 (   574 PWs)   bands (ev):

    -2.2066  -0.9421   3.0353   3.4332   6.9894   7.5589  15.2942  15.3907

          k =-0.2500-0.7500-0.0833 (   574 PWs)   bands (ev):

    -3.1458   0.1865   2.7827   3.5815   7.9432   9.2267  11.9806  13.8026

          k =-0.0833-0.5833 0.0833 (   572 PWs)   bands (ev):

    -4.2367   1.7816   3.8551   4.0738   7.4296   8.9974  12.2632  12.4604

          k =-0.2500 0.2500 0.2500 (   573 PWs)   bands (ev):

    -4.9561   2.2823   5.4515   5.4515   8.2378   9.7249   9.7249  13.1185

          k =-0.4167 0.4167 0.0833 (   571 PWs)   bands (ev):

    -4.2738   1.3496   3.3075   5.2818   8.9974  10.2215  10.3944  12.3447

          k = 0.4167-0.4167 0.9167 (   573 PWs)   bands (ev):

    -3.0884  -0.0951   2.1932   4.4903   8.2401  11.5433  11.6560  13.3958

          k = 0.2500-0.2500 0.7500 (   573 PWs)   bands (ev):

    -3.0363  -0.1745   2.6759   4.0051   7.7365  10.6676  11.9578  12.1429

          k =-0.2500 0.5833 0.2500 (   577 PWs)   bands (ev):

    -3.8476   0.5373   3.7781   4.3803   8.2260  10.4724  11.1170  11.2700

          k = 0.5833-0.2500 1.0833 (   564 PWs)   bands (ev):

    -2.8405  -0.2057   2.2934   3.5786   9.4456   9.9847  10.9724  13.7176

          k = 0.4167-0.0833 0.9167 (   570 PWs)   bands (ev):

    -2.0053  -0.9414   2.1260   2.9064   9.2414  10.5067  11.3257  12.7146

          k =-0.2500-1.0833 0.2500 (   569 PWs)   bands (ev):

    -2.2167  -0.8487   1.9991   3.8096   7.4567  10.3825  13.3227  13.5277

          k =-0.4167 0.4167 0.4167 (   580 PWs)   bands (ev):

    -3.7575  -0.2561   5.0615   5.0615   7.8031   9.6155   9.6155  14.0237

          k = 0.4167-0.4167 1.2500 (   568 PWs)   bands (ev):

    -3.1490  -0.5575   3.2193   4.6181   8.4017  10.2835  10.6173  14.1983

     the Fermi energy is     6.5173 ev

!    total energy              =     -93.45369517 Ry
     Harris-Foulkes estimate   =     -93.45369508 Ry
     estimated scf accuracy    <       0.00000011 Ry

     total all-electron energy =     -1160.145431 Ry

     The total energy is the sum of the following terms:

     one-electron contribution =       5.73626250 Ry
     hartree contribution      =       1.09758571 Ry
     xc contribution           =     -12.25535595 Ry
     ewald contribution        =     -16.79708772 Ry
     one-center paw contrib.   =     -71.23509939 Ry
     smearing contrib. (-TS)   =      -0.00000030 Ry

     convergence has been achieved in   4 iterations

     Writing output data file SCF.save
 
     init_run     :      0.29s CPU      0.34s WALL (       1 calls)
     electrons    :      1.36s CPU      1.39s WALL (       1 calls)

     Called by init_run:
     wfcinit      :      0.07s CPU      0.12s WALL (       1 calls)
     potinit      :      0.08s CPU      0.08s WALL (       1 calls)

     Called by electrons:
     c_bands      :      0.86s CPU      0.88s WALL (       5 calls)
     sum_band     :      0.19s CPU      0.19s WALL (       5 calls)
     v_of_rho     :      0.03s CPU      0.03s WALL (       5 calls)
     newd         :      0.01s CPU      0.01s WALL (       5 calls)
     PAW_pot      :      0.36s CPU      0.36s WALL (       5 calls)
     mix_rho      :      0.00s CPU      0.00s WALL (       5 calls)

     Called by c_bands:
     init_us_2    :      0.03s CPU      0.03s WALL (     308 calls)
     cegterg      :      0.80s CPU      0.82s WALL (     140 calls)

     Called by sum_band:
     sum_band:bec :      0.00s CPU      0.00s WALL (     140 calls)
     addusdens    :      0.01s CPU      0.01s WALL (       5 calls)

     Called by *egterg:
     h_psi        :      0.71s CPU      0.77s WALL (     489 calls)
     s_psi        :      0.01s CPU      0.02s WALL (     489 calls)
     g_psi        :      0.01s CPU      0.01s WALL (     321 calls)
     cdiaghg      :      0.06s CPU      0.06s WALL (     433 calls)

     Called by h_psi:
     h_psi:pot    :      0.71s CPU      0.77s WALL (     489 calls)
     h_psi:calbec :      0.02s CPU      0.02s WALL (     489 calls)
     vloc_psi     :      0.68s CPU      0.69s WALL (     489 calls)
     add_vuspsi   :      0.02s CPU      0.06s WALL (     489 calls)

     General routines
     calbec       :      0.02s CPU      0.02s WALL (     629 calls)
     fft          :      0.01s CPU      0.01s WALL (      67 calls)
     fftw         :      0.76s CPU      0.72s WALL (    7104 calls)
     davcio       :      0.00s CPU      0.00s WALL (      28 calls)
 
     Parallel routines
     fft_scatter  :      0.08s CPU      0.08s WALL (    7171 calls)
 
     PWSCF        :     1.93s CPU         2.02s WALL

 
   This run was terminated on:   7:52:10   9Sep2018            

=------------------------------------------------------------------------------=
   JOB DONE.
=------------------------------------------------------------------------------=
