
     Program PWSCF v.6.1 (svn rev. 13369) starts on  9Sep2018 at  8:30:16 

     This program is part of the open-source Quantum ESPRESSO suite
     for quantum simulation of materials; please cite
         "P. Giannozzi et al., J. Phys.:Condens. Matter 21 395502 (2009);
          URL http://www.quantum-espresso.org", 
     in publications or presentations arising from this work. More details at
     http://www.quantum-espresso.org/quote

     Parallel version (MPI), running on     1 processors
     Waiting for input...
     Reading input from standard input

     Current dimensions of program PWSCF are:
     Max number of different atomic species (ntypx) = 10
     Max number of k-points (npk) =  40000
     Max angular momentum in pseudopotentials (lmaxx) =  3
               file Si.pbe-n-kjpaw_psl.0.1.UPF: wavefunction(s)  3S renormalized

     Subspace diagonalization in iterative solution of the eigenvalue problem:
     a serial algorithm will be used

 
     G-vector sticks info
     --------------------
     sticks:   dense  smooth     PW     G-vecs:    dense   smooth      PW
     Sum         511     511    163                 7799     7799    1459
 


     bravais-lattice index     =            2
     lattice parameter (alat)  =      10.4000  a.u.
     unit-cell volume          =     281.2160 (a.u.)^3
     number of atoms/cell      =            2
     number of atomic types    =            1
     number of electrons       =         8.00
     number of Kohn-Sham states=            8
     kinetic-energy cutoff     =      35.0000  Ry
     charge density cutoff     =     140.0000  Ry
     convergence threshold     =      1.0E-06
     mixing beta               =       0.7000
     number of iterations used =            8  plain     mixing
     Exchange-correlation      =  SLA  PW   PBX  PBC ( 1  4  3  4 0 0)

     celldm(1)=  10.400000  celldm(2)=   0.000000  celldm(3)=   0.000000
     celldm(4)=   0.000000  celldm(5)=   0.000000  celldm(6)=   0.000000

     crystal axes: (cart. coord. in units of alat)
               a(1) = (  -0.500000   0.000000   0.500000 )  
               a(2) = (   0.000000   0.500000   0.500000 )  
               a(3) = (  -0.500000   0.500000   0.000000 )  

     reciprocal axes: (cart. coord. in units 2 pi/alat)
               b(1) = ( -1.000000 -1.000000  1.000000 )  
               b(2) = (  1.000000  1.000000  1.000000 )  
               b(3) = ( -1.000000  1.000000 -1.000000 )  


     PseudoPot. # 1 for Si read from file:
     /opt/home/guest1/upf_files/Si.pbe-n-kjpaw_psl.0.1.UPF
     MD5 check sum: b9d333a40e496bef61db012f150758bf
     Pseudo is Projector augmented-wave + core cor, Zval =  4.0
     Generated using "atomic" code by A. Dal Corso  v.5.0.2 svn rev. 9415
     Shape of augmentation charge: PSQ
     Using radial grid of 1141 points,  4 beta functions with: 
                l(1) =   0
                l(2) =   0
                l(3) =   1
                l(4) =   1
     Q(r) pseudized with 0 coefficients 


     atomic species   valence    mass     pseudopotential
        Si             4.00    28.08550     Si( 1.00)

     24 Sym. Ops. (no inversion) found
          (note: 24 additional sym.ops. were found but ignored
           their fractional translations are incommensurate with FFT grid)


   Cartesian axes

     site n.     atom                  positions (alat units)
         1           Si  tau(   1) = (   0.0000000   0.0000000   0.0000000  )
         2           Si  tau(   2) = (  -0.2500000   0.2500000   0.2500000  )

     number of k points=    28  Fermi-Dirac smearing, width (Ry)=  0.0036
                       cart. coord. in units 2pi/alat
        k(    1) = (  -0.0833333   0.0833333   0.0833333), wk =   0.0185185
        k(    2) = (  -0.2500000   0.2500000  -0.0833333), wk =   0.0555556
        k(    3) = (  -0.4166667   0.4166667  -0.2500000), wk =   0.0555556
        k(    4) = (   0.4166667  -0.4166667   0.5833333), wk =   0.0555556
        k(    5) = (   0.2500000  -0.2500000   0.4166667), wk =   0.0555556
        k(    6) = (   0.0833333  -0.0833333   0.2500000), wk =   0.0555556
        k(    7) = (  -0.0833333   0.4166667   0.0833333), wk =   0.0555556
        k(    8) = (  -0.2500000   0.5833333  -0.0833333), wk =   0.1111111
        k(    9) = (   0.5833333  -0.2500000   0.7500000), wk =   0.1111111
        k(   10) = (   0.4166667  -0.0833333   0.5833333), wk =   0.1111111
        k(   11) = (   0.2500000   0.0833333   0.4166667), wk =   0.1111111
        k(   12) = (  -0.0833333   0.7500000   0.0833333), wk =   0.0555556
        k(   13) = (   0.7500000  -0.0833333   0.9166667), wk =   0.1111111
        k(   14) = (   0.5833333   0.0833333   0.7500000), wk =   0.1111111
        k(   15) = (   0.4166667   0.2500000   0.5833333), wk =   0.1111111
        k(   16) = (  -0.0833333  -0.9166667   0.0833333), wk =   0.0555556
        k(   17) = (  -0.2500000  -0.7500000  -0.0833333), wk =   0.1111111
        k(   18) = (  -0.0833333  -0.5833333   0.0833333), wk =   0.0555556
        k(   19) = (  -0.2500000   0.2500000   0.2500000), wk =   0.0185185
        k(   20) = (  -0.4166667   0.4166667   0.0833333), wk =   0.0555556
        k(   21) = (   0.4166667  -0.4166667   0.9166667), wk =   0.0555556
        k(   22) = (   0.2500000  -0.2500000   0.7500000), wk =   0.0555556
        k(   23) = (  -0.2500000   0.5833333   0.2500000), wk =   0.0555556
        k(   24) = (   0.5833333  -0.2500000   1.0833333), wk =   0.1111111
        k(   25) = (   0.4166667  -0.0833333   0.9166667), wk =   0.1111111
        k(   26) = (  -0.2500000  -1.0833333   0.2500000), wk =   0.0555556
        k(   27) = (  -0.4166667   0.4166667   0.4166667), wk =   0.0185185
        k(   28) = (   0.4166667  -0.4166667   1.2500000), wk =   0.0555556

     Dense  grid:     7799 G-vectors     FFT dimensions: (  27,  27,  27)

     Estimated max dynamical RAM per process >       9.19MB

     Check: negative/imaginary core charge=   -0.000003    0.000000

     Initial potential from superposition of free atoms

     starting charge    7.99888, renormalised to    8.00000
     Starting wfc are    8 randomized atomic wfcs
     Checking if some PAW data can be deallocated... 

     total cpu time spent up to now is        0.6 secs

     per-process dynamical memory:    44.3 Mb

     Self-consistent Calculation

     iteration #  1     ecut=    35.00 Ry     beta=0.70
     Davidson diagonalization with overlap
     ethr =  1.00E-02,  avg # of iterations =  3.5

     Threshold (ethr) on eigenvalues was too large:
     Diagonalizing with lowered threshold

     Davidson diagonalization with overlap
     ethr =  6.83E-04,  avg # of iterations =  1.1

     total cpu time spent up to now is        1.5 secs

     total energy              =     -93.45179459 Ry
     Harris-Foulkes estimate   =     -93.46405478 Ry
     estimated scf accuracy    <       0.05393741 Ry

     iteration #  2     ecut=    35.00 Ry     beta=0.70
     Davidson diagonalization with overlap
     ethr =  6.74E-04,  avg # of iterations =  1.0

     total cpu time spent up to now is        1.9 secs

     total energy              =     -93.45388562 Ry
     Harris-Foulkes estimate   =     -93.45398476 Ry
     estimated scf accuracy    <       0.00214850 Ry

     iteration #  3     ecut=    35.00 Ry     beta=0.70
     Davidson diagonalization with overlap
     ethr =  2.69E-05,  avg # of iterations =  3.0

     total cpu time spent up to now is        2.4 secs

     total energy              =     -93.45396120 Ry
     Harris-Foulkes estimate   =     -93.45395854 Ry
     estimated scf accuracy    <       0.00004533 Ry

     iteration #  4     ecut=    35.00 Ry     beta=0.70
     Davidson diagonalization with overlap
     ethr =  5.67E-07,  avg # of iterations =  2.9

     total cpu time spent up to now is        2.9 secs

     End of self-consistent calculation

          k =-0.0833 0.0833 0.0833 (   950 PWs)   bands (ev):

    -5.8092   4.9374   5.6612   5.6612   8.3075   8.5493   8.5493   9.4476

          k =-0.2500 0.2500-0.0833 (   974 PWs)   bands (ev):

    -5.3471   2.8858   4.4654   5.4528   8.3747   8.9382   9.2703  11.2857

          k =-0.4167 0.4167-0.2500 (   979 PWs)   bands (ev):

    -4.2922   0.2046   4.0034   4.8342   7.8665   9.3461   9.3861  13.1186

          k = 0.4167-0.4167 0.5833 (   987 PWs)   bands (ev):

    -3.6256  -0.8960   4.0616   4.4670   7.7172   9.0756   9.4966  13.6134

          k = 0.2500-0.2500 0.4167 (   976 PWs)   bands (ev):

    -4.6889   1.0247   4.5297   4.5460   7.9805   9.0599   9.8516  11.7015

          k = 0.0833-0.0833 0.2500 (   967 PWs)   bands (ev):

    -5.5758   3.8726   5.0394   5.2064   8.0961   8.8878   9.4204  10.4232

          k =-0.0833 0.4167 0.0833 (   980 PWs)   bands (ev):

    -5.1131   2.6765   4.3078   4.3324   7.5361   9.5809  10.4209  10.6103

          k =-0.2500 0.5833-0.0833 (   984 PWs)   bands (ev):

    -4.2320   0.8806   3.0383   3.9549   7.9265   9.5155  10.2607  11.6961

          k = 0.5833-0.2500 0.7500 (   979 PWs)   bands (ev):

    -3.1616  -0.7991   2.4445   3.7383   8.1657   9.6782  11.5759  11.9678

          k = 0.4167-0.0833 0.5833 (   988 PWs)   bands (ev):

    -3.8525   0.2139   2.4166   4.2049   8.7239   9.3718  10.9891  11.4768

          k = 0.2500 0.0833 0.4167 (   974 PWs)   bands (ev):

    -4.8951   1.8749   3.7120   4.8453   8.3828   9.1797  10.2843  10.6674

          k =-0.0833 0.7500 0.0833 (   990 PWs)   bands (ev):

    -3.5412   0.0574   3.0090   3.3328   6.7438   7.7103  13.1782  13.2665

          k = 0.7500-0.0833 0.9167 (   981 PWs)   bands (ev):

    -2.3869  -1.2455   2.2033   2.9452   7.3551   8.4476  12.7549  14.1653

          k = 0.5833 0.0833 0.7500 (   980 PWs)   bands (ev):

    -2.7542  -0.9042   1.7335   3.4716   7.9502  10.7911  11.7446  12.3705

          k = 0.4167 0.2500 0.5833 (   984 PWs)   bands (ev):

    -3.7480  -0.4236   3.3092   4.2977   8.3013   9.0106  10.2795  12.4540

          k =-0.0833-0.9167 0.0833 (   987 PWs)   bands (ev):

    -2.4716  -1.2515   2.7486   3.1233   6.6431   7.1949  14.6455  14.7043

          k =-0.2500-0.7500-0.0833 (   991 PWs)   bands (ev):

    -3.3803  -0.1563   2.5075   3.2751   7.5543   8.8118  11.4257  13.1991

          k =-0.0833-0.5833 0.0833 (   991 PWs)   bands (ev):

    -4.4299   1.3912   3.5330   3.7434   7.0486   8.5975  11.6828  11.9072

          k =-0.2500 0.2500 0.2500 (   968 PWs)   bands (ev):

    -5.1250   1.9407   5.0645   5.0645   7.6831   9.2733   9.2733  12.3789

          k =-0.4167 0.4167 0.0833 (   982 PWs)   bands (ev):

    -4.4680   1.0092   3.0024   4.8975   8.4898   9.7543   9.9077  11.7540

          k = 0.4167-0.4167 0.9167 (   989 PWs)   bands (ev):

    -3.3319  -0.4038   1.9373   4.1391   7.8283  11.0429  11.1153  12.7787

          k = 0.2500-0.2500 0.7500 (   986 PWs)   bands (ev):

    -3.2796  -0.4816   2.3940   3.6742   7.3570  10.2145  11.3498  11.6385

          k =-0.2500 0.5833 0.2500 (   990 PWs)   bands (ev):

    -4.0587   0.2301   3.4352   4.0358   7.8083   9.9216  10.6418  10.8005

          k = 0.5833-0.2500 1.0833 (   985 PWs)   bands (ev):

    -3.0915  -0.5270   2.0362   3.2764   9.0112   9.5232  10.4676  13.1264

          k = 0.4167-0.0833 0.9167 (   989 PWs)   bands (ev):

    -2.2892  -1.2531   1.8875   2.6352   8.8171  10.0692  10.7820  12.1552

          k =-0.2500-1.0833 0.2500 (   985 PWs)   bands (ev):

    -2.4942  -1.1525   1.7652   3.4854   7.0919   9.9304  12.7651  12.8889

          k =-0.4167 0.4167 0.4167 (   978 PWs)   bands (ev):

    -3.9779  -0.5093   4.6838   4.6838   7.2477   9.2055   9.2055  13.5417

          k = 0.4167-0.4167 1.2500 (   982 PWs)   bands (ev):

    -3.3966  -0.8132   2.8990   4.2609   7.9561   9.7753  10.1701  13.6186

     the Fermi energy is     6.1398 ev

!    total energy              =     -93.45397191 Ry
     Harris-Foulkes estimate   =     -93.45397184 Ry
     estimated scf accuracy    <       0.00000015 Ry

     total all-electron energy =     -1160.145708 Ry

     The total energy is the sum of the following terms:

     one-electron contribution =       5.42369205 Ry
     hartree contribution      =       1.13307534 Ry
     xc contribution           =     -12.20835079 Ry
     ewald contribution        =     -16.57476324 Ry
     one-center paw contrib.   =     -71.22762511 Ry
     smearing contrib. (-TS)   =      -0.00000017 Ry

     convergence has been achieved in   4 iterations

     Writing output data file SCF.save
 
     init_run     :      0.38s CPU      0.39s WALL (       1 calls)
     electrons    :      2.24s CPU      2.27s WALL (       1 calls)

     Called by init_run:
     wfcinit      :      0.13s CPU      0.13s WALL (       1 calls)
     potinit      :      0.08s CPU      0.09s WALL (       1 calls)

     Called by electrons:
     c_bands      :      1.57s CPU      1.59s WALL (       5 calls)
     sum_band     :      0.34s CPU      0.34s WALL (       5 calls)
     v_of_rho     :      0.04s CPU      0.04s WALL (       5 calls)
     newd         :      0.01s CPU      0.02s WALL (       5 calls)
     PAW_pot      :      0.36s CPU      0.36s WALL (       5 calls)
     mix_rho      :      0.00s CPU      0.00s WALL (       5 calls)

     Called by c_bands:
     init_us_2    :      0.05s CPU      0.05s WALL (     308 calls)
     cegterg      :      1.47s CPU      1.49s WALL (     140 calls)

     Called by sum_band:
     sum_band:bec :      0.00s CPU      0.00s WALL (     140 calls)
     addusdens    :      0.02s CPU      0.02s WALL (       5 calls)

     Called by *egterg:
     h_psi        :      1.36s CPU      1.39s WALL (     490 calls)
     s_psi        :      0.03s CPU      0.03s WALL (     490 calls)
     g_psi        :      0.01s CPU      0.01s WALL (     322 calls)
     cdiaghg      :      0.06s CPU      0.06s WALL (     434 calls)

     Called by h_psi:
     h_psi:pot    :      1.36s CPU      1.38s WALL (     490 calls)
     h_psi:calbec :      0.03s CPU      0.03s WALL (     490 calls)
     vloc_psi     :      1.30s CPU      1.32s WALL (     490 calls)
     add_vuspsi   :      0.03s CPU      0.03s WALL (     490 calls)

     General routines
     calbec       :      0.04s CPU      0.04s WALL (     630 calls)
     fft          :      0.02s CPU      0.02s WALL (      67 calls)
     fftw         :      1.39s CPU      1.41s WALL (    7118 calls)
     davcio       :      0.00s CPU      0.01s WALL (      28 calls)
 
     Parallel routines
     fft_scatter  :      0.14s CPU      0.15s WALL (    7185 calls)
 
     PWSCF        :     2.90s CPU         2.97s WALL

 
   This run was terminated on:   8:30:19   9Sep2018            

=------------------------------------------------------------------------------=
   JOB DONE.
=------------------------------------------------------------------------------=
