
     Program PWSCF v.6.1 (svn rev. 13369) starts on  9Sep2018 at  8:30:13 

     This program is part of the open-source Quantum ESPRESSO suite
     for quantum simulation of materials; please cite
         "P. Giannozzi et al., J. Phys.:Condens. Matter 21 395502 (2009);
          URL http://www.quantum-espresso.org", 
     in publications or presentations arising from this work. More details at
     http://www.quantum-espresso.org/quote

     Parallel version (MPI), running on     1 processors
     Waiting for input...
     Reading input from standard input

     Current dimensions of program PWSCF are:
     Max number of different atomic species (ntypx) = 10
     Max number of k-points (npk) =  40000
     Max angular momentum in pseudopotentials (lmaxx) =  3
               file Si.pbe-n-kjpaw_psl.0.1.UPF: wavefunction(s)  3S renormalized

     Subspace diagonalization in iterative solution of the eigenvalue problem:
     a serial algorithm will be used

 
     G-vector sticks info
     --------------------
     sticks:   dense  smooth     PW     G-vecs:    dense   smooth      PW
     Sum         499     499    163                 7391     7391    1411
 


     bravais-lattice index     =            2
     lattice parameter (alat)  =      10.2000  a.u.
     unit-cell volume          =     265.3020 (a.u.)^3
     number of atoms/cell      =            2
     number of atomic types    =            1
     number of electrons       =         8.00
     number of Kohn-Sham states=            8
     kinetic-energy cutoff     =      35.0000  Ry
     charge density cutoff     =     140.0000  Ry
     convergence threshold     =      1.0E-06
     mixing beta               =       0.7000
     number of iterations used =            8  plain     mixing
     Exchange-correlation      =  SLA  PW   PBX  PBC ( 1  4  3  4 0 0)

     celldm(1)=  10.200000  celldm(2)=   0.000000  celldm(3)=   0.000000
     celldm(4)=   0.000000  celldm(5)=   0.000000  celldm(6)=   0.000000

     crystal axes: (cart. coord. in units of alat)
               a(1) = (  -0.500000   0.000000   0.500000 )  
               a(2) = (   0.000000   0.500000   0.500000 )  
               a(3) = (  -0.500000   0.500000   0.000000 )  

     reciprocal axes: (cart. coord. in units 2 pi/alat)
               b(1) = ( -1.000000 -1.000000  1.000000 )  
               b(2) = (  1.000000  1.000000  1.000000 )  
               b(3) = ( -1.000000  1.000000 -1.000000 )  


     PseudoPot. # 1 for Si read from file:
     /opt/home/guest1/upf_files/Si.pbe-n-kjpaw_psl.0.1.UPF
     MD5 check sum: b9d333a40e496bef61db012f150758bf
     Pseudo is Projector augmented-wave + core cor, Zval =  4.0
     Generated using "atomic" code by A. Dal Corso  v.5.0.2 svn rev. 9415
     Shape of augmentation charge: PSQ
     Using radial grid of 1141 points,  4 beta functions with: 
                l(1) =   0
                l(2) =   0
                l(3) =   1
                l(4) =   1
     Q(r) pseudized with 0 coefficients 


     atomic species   valence    mass     pseudopotential
        Si             4.00    28.08550     Si( 1.00)

     24 Sym. Ops. (no inversion) found
          (note: 24 additional sym.ops. were found but ignored
           their fractional translations are incommensurate with FFT grid)


   Cartesian axes

     site n.     atom                  positions (alat units)
         1           Si  tau(   1) = (   0.0000000   0.0000000   0.0000000  )
         2           Si  tau(   2) = (  -0.2500000   0.2500000   0.2500000  )

     number of k points=    28  Fermi-Dirac smearing, width (Ry)=  0.0036
                       cart. coord. in units 2pi/alat
        k(    1) = (  -0.0833333   0.0833333   0.0833333), wk =   0.0185185
        k(    2) = (  -0.2500000   0.2500000  -0.0833333), wk =   0.0555556
        k(    3) = (  -0.4166667   0.4166667  -0.2500000), wk =   0.0555556
        k(    4) = (   0.4166667  -0.4166667   0.5833333), wk =   0.0555556
        k(    5) = (   0.2500000  -0.2500000   0.4166667), wk =   0.0555556
        k(    6) = (   0.0833333  -0.0833333   0.2500000), wk =   0.0555556
        k(    7) = (  -0.0833333   0.4166667   0.0833333), wk =   0.0555556
        k(    8) = (  -0.2500000   0.5833333  -0.0833333), wk =   0.1111111
        k(    9) = (   0.5833333  -0.2500000   0.7500000), wk =   0.1111111
        k(   10) = (   0.4166667  -0.0833333   0.5833333), wk =   0.1111111
        k(   11) = (   0.2500000   0.0833333   0.4166667), wk =   0.1111111
        k(   12) = (  -0.0833333   0.7500000   0.0833333), wk =   0.0555556
        k(   13) = (   0.7500000  -0.0833333   0.9166667), wk =   0.1111111
        k(   14) = (   0.5833333   0.0833333   0.7500000), wk =   0.1111111
        k(   15) = (   0.4166667   0.2500000   0.5833333), wk =   0.1111111
        k(   16) = (  -0.0833333  -0.9166667   0.0833333), wk =   0.0555556
        k(   17) = (  -0.2500000  -0.7500000  -0.0833333), wk =   0.1111111
        k(   18) = (  -0.0833333  -0.5833333   0.0833333), wk =   0.0555556
        k(   19) = (  -0.2500000   0.2500000   0.2500000), wk =   0.0185185
        k(   20) = (  -0.4166667   0.4166667   0.0833333), wk =   0.0555556
        k(   21) = (   0.4166667  -0.4166667   0.9166667), wk =   0.0555556
        k(   22) = (   0.2500000  -0.2500000   0.7500000), wk =   0.0555556
        k(   23) = (  -0.2500000   0.5833333   0.2500000), wk =   0.0555556
        k(   24) = (   0.5833333  -0.2500000   1.0833333), wk =   0.1111111
        k(   25) = (   0.4166667  -0.0833333   0.9166667), wk =   0.1111111
        k(   26) = (  -0.2500000  -1.0833333   0.2500000), wk =   0.0555556
        k(   27) = (  -0.4166667   0.4166667   0.4166667), wk =   0.0185185
        k(   28) = (   0.4166667  -0.4166667   1.2500000), wk =   0.0555556

     Dense  grid:     7391 G-vectors     FFT dimensions: (  27,  27,  27)

     Estimated max dynamical RAM per process >       8.76MB

     Check: negative/imaginary core charge=   -0.000003    0.000000

     Initial potential from superposition of free atoms

     starting charge    7.99888, renormalised to    8.00000
     Starting wfc are    8 randomized atomic wfcs
     Checking if some PAW data can be deallocated... 

     total cpu time spent up to now is        0.6 secs

     per-process dynamical memory:    43.7 Mb

     Self-consistent Calculation

     iteration #  1     ecut=    35.00 Ry     beta=0.70
     Davidson diagonalization with overlap
     ethr =  1.00E-02,  avg # of iterations =  3.8

     Threshold (ethr) on eigenvalues was too large:
     Diagonalizing with lowered threshold

     Davidson diagonalization with overlap
     ethr =  7.51E-04,  avg # of iterations =  1.0

     total cpu time spent up to now is        1.5 secs

     total energy              =     -93.45026578 Ry
     Harris-Foulkes estimate   =     -93.46511277 Ry
     estimated scf accuracy    <       0.05940798 Ry

     iteration #  2     ecut=    35.00 Ry     beta=0.70
     Davidson diagonalization with overlap
     ethr =  7.43E-04,  avg # of iterations =  1.0

     total cpu time spent up to now is        1.9 secs

     total energy              =     -93.45296654 Ry
     Harris-Foulkes estimate   =     -93.45303845 Ry
     estimated scf accuracy    <       0.00209162 Ry

     iteration #  3     ecut=    35.00 Ry     beta=0.70
     Davidson diagonalization with overlap
     ethr =  2.61E-05,  avg # of iterations =  2.9

     total cpu time spent up to now is        2.3 secs

     total energy              =     -93.45305312 Ry
     Harris-Foulkes estimate   =     -93.45304934 Ry
     estimated scf accuracy    <       0.00005486 Ry

     iteration #  4     ecut=    35.00 Ry     beta=0.70
     Davidson diagonalization with overlap
     ethr =  6.86E-07,  avg # of iterations =  2.8

     total cpu time spent up to now is        2.8 secs

     End of self-consistent calculation

          k =-0.0833 0.0833 0.0833 (   929 PWs)   bands (ev):

    -5.5980   5.5433   6.2571   6.2571   9.0464   9.1922   9.1922  10.5963

          k =-0.2500 0.2500-0.0833 (   923 PWs)   bands (ev):

    -5.1115   3.4428   4.9929   6.0466   9.1776   9.5914   9.9645  12.2481

          k =-0.4167 0.4167-0.2500 (   926 PWs)   bands (ev):

    -3.9938   0.6257   4.5278   5.3968   8.6705   9.9602  10.0008  13.9613

          k = 0.4167-0.4167 0.5833 (   926 PWs)   bands (ev):

    -3.2730  -0.5486   4.6007   5.0065   8.5048   9.6688  10.1001  14.3710

          k = 0.2500-0.2500 0.4167 (   927 PWs)   bands (ev):

    -4.4160   1.4902   5.0637   5.1104   8.7419   9.7212  10.5136  12.4045

          k = 0.0833-0.0833 0.2500 (   926 PWs)   bands (ev):

    -5.3525   4.4712   5.5934   5.7952   8.7220   9.6835  10.1146  11.4177

          k =-0.0833 0.4167 0.0833 (   929 PWs)   bands (ev):

    -4.8655   3.2721   4.8403   4.8473   8.1227  10.3392  11.1211  11.3592

          k =-0.2500 0.5833-0.0833 (   923 PWs)   bands (ev):

    -3.9354   1.4040   3.4863   4.4541   8.5248  10.1589  11.0164  12.4869

          k = 0.5833-0.2500 0.7500 (   930 PWs)   bands (ev):

    -2.7869  -0.3972   2.8801   4.2190   8.7764  10.3669  12.3507  12.7417

          k = 0.4167-0.0833 0.5833 (   926 PWs)   bands (ev):

    -3.5306   0.6927   2.8277   4.7201   9.4059  10.0267  11.7402  12.2163

          k = 0.2500 0.0833 0.4167 (   929 PWs)   bands (ev):

    -4.6350   2.4100   4.1998   5.4090   9.0373   9.9758  11.0054  11.3122

          k =-0.0833 0.7500 0.0833 (   928 PWs)   bands (ev):

    -3.2100   0.5769   3.4456   3.7982   7.2673   8.2423  14.0872  14.1152

          k = 0.7500-0.0833 0.9167 (   932 PWs)   bands (ev):

    -1.9856  -0.7878   2.5766   3.3770   7.8979   9.0409  13.5985  15.1119

          k = 0.5833 0.0833 0.7500 (   927 PWs)   bands (ev):

    -2.3584  -0.4581   2.0842   3.9362   8.5338  11.4916  12.5050  13.2113

          k = 0.4167 0.2500 0.5833 (   926 PWs)   bands (ev):

    -3.4131  -0.0267   3.8059   4.8220   9.0485   9.6041  10.9735  13.2156

          k =-0.0833-0.9167 0.0833 (   940 PWs)   bands (ev):

    -2.0826  -0.7975   3.1695   3.5789   7.1436   7.7210  15.5785  15.6956

          k =-0.2500-0.7500-0.0833 (   928 PWs)   bands (ev):

    -3.0360   0.3466   2.9114   3.7247   8.1172   9.4103  12.2284  14.0700

          k =-0.0833-0.5833 0.0833 (   926 PWs)   bands (ev):

    -4.1462   1.9632   4.0057   4.2286   7.6013   9.1715  12.5239  12.7054

          k =-0.2500 0.2500 0.2500 (   932 PWs)   bands (ev):

    -4.8770   2.4403   5.6318   5.6318   8.4904   9.9270   9.9270  13.4613

          k =-0.4167 0.4167 0.0833 (   925 PWs)   bands (ev):

    -4.1829   1.5073   3.4501   5.4613   9.2240  10.4297  10.6139  12.6133

          k = 0.4167-0.4167 0.9167 (   928 PWs)   bands (ev):

    -2.9743   0.0484   2.3132   4.6546   8.4230  11.7648  11.8962  13.6752

          k = 0.2500-0.2500 0.7500 (   932 PWs)   bands (ev):

    -2.9224  -0.0318   2.8081   4.1602   7.9052  10.8664  12.2355  12.3632

          k =-0.2500 0.5833 0.2500 (   921 PWs)   bands (ev):

    -3.7488   0.6797   3.9388   4.5415   8.4120  10.7183  11.3263  11.4838

          k = 0.5833-0.2500 1.0833 (   922 PWs)   bands (ev):

    -2.7230  -0.0561   2.4139   3.7194   9.6367  10.1898  11.1993  13.9733

          k = 0.4167-0.0833 0.9167 (   926 PWs)   bands (ev):

    -1.8722  -0.7957   2.2373   3.0328   9.4298  10.6993  11.5703  12.9633

          k =-0.2500-1.0833 0.2500 (   934 PWs)   bands (ev):

    -2.0866  -0.7070   2.1082   3.9616   7.6188  10.5827  13.5664  13.8158

          k =-0.4167 0.4167 0.4167 (   932 PWs)   bands (ev):

    -3.6542  -0.1386   5.2385   5.2385   8.0578   9.7964   9.7964  14.2411

          k = 0.4167-0.4167 1.2500 (   932 PWs)   bands (ev):

    -3.0329  -0.4392   3.3694   4.7853   8.5993  10.5145  10.8144  14.4541

     the Fermi energy is     6.6890 ev

!    total energy              =     -93.45306526 Ry
     Harris-Foulkes estimate   =     -93.45306520 Ry
     estimated scf accuracy    <       0.00000013 Ry

     total all-electron energy =     -1160.144801 Ry

     The total energy is the sum of the following terms:

     one-electron contribution =       5.88086333 Ry
     hartree contribution      =       1.08139967 Ry
     xc contribution           =     -12.27751596 Ry
     ewald contribution        =     -16.89975859 Ry
     one-center paw contrib.   =     -71.23805329 Ry
     smearing contrib. (-TS)   =      -0.00000041 Ry

     convergence has been achieved in   4 iterations

     Writing output data file SCF.save
 
     init_run     :      0.37s CPU      0.39s WALL (       1 calls)
     electrons    :      2.20s CPU      2.24s WALL (       1 calls)

     Called by init_run:
     wfcinit      :      0.13s CPU      0.13s WALL (       1 calls)
     potinit      :      0.08s CPU      0.09s WALL (       1 calls)

     Called by electrons:
     c_bands      :      1.54s CPU      1.57s WALL (       5 calls)
     sum_band     :      0.33s CPU      0.34s WALL (       5 calls)
     v_of_rho     :      0.04s CPU      0.04s WALL (       5 calls)
     newd         :      0.01s CPU      0.01s WALL (       5 calls)
     PAW_pot      :      0.36s CPU      0.36s WALL (       5 calls)
     mix_rho      :      0.00s CPU      0.00s WALL (       5 calls)

     Called by c_bands:
     init_us_2    :      0.05s CPU      0.05s WALL (     308 calls)
     cegterg      :      1.44s CPU      1.47s WALL (     140 calls)

     Called by sum_band:
     sum_band:bec :      0.00s CPU      0.00s WALL (     140 calls)
     addusdens    :      0.01s CPU      0.02s WALL (       5 calls)

     Called by *egterg:
     h_psi        :      1.35s CPU      1.38s WALL (     490 calls)
     s_psi        :      0.02s CPU      0.02s WALL (     490 calls)
     g_psi        :      0.01s CPU      0.01s WALL (     322 calls)
     cdiaghg      :      0.06s CPU      0.06s WALL (     434 calls)

     Called by h_psi:
     h_psi:pot    :      1.35s CPU      1.37s WALL (     490 calls)
     h_psi:calbec :      0.03s CPU      0.03s WALL (     490 calls)
     vloc_psi     :      1.30s CPU      1.32s WALL (     490 calls)
     add_vuspsi   :      0.02s CPU      0.03s WALL (     490 calls)

     General routines
     calbec       :      0.04s CPU      0.03s WALL (     630 calls)
     fft          :      0.02s CPU      0.02s WALL (      67 calls)
     fftw         :      1.39s CPU      1.40s WALL (    7118 calls)
     davcio       :      0.00s CPU      0.01s WALL (      28 calls)
 
     Parallel routines
     fft_scatter  :      0.14s CPU      0.15s WALL (    7185 calls)
 
     PWSCF        :     2.84s CPU         2.90s WALL

 
   This run was terminated on:   8:30:16   9Sep2018            

=------------------------------------------------------------------------------=
   JOB DONE.
=------------------------------------------------------------------------------=
