
     Program PWSCF v.6.1 (svn rev. 13369) starts on  9Sep2018 at  8:30:10 

     This program is part of the open-source Quantum ESPRESSO suite
     for quantum simulation of materials; please cite
         "P. Giannozzi et al., J. Phys.:Condens. Matter 21 395502 (2009);
          URL http://www.quantum-espresso.org", 
     in publications or presentations arising from this work. More details at
     http://www.quantum-espresso.org/quote

     Parallel version (MPI), running on     1 processors
     Waiting for input...
     Reading input from standard input

     Current dimensions of program PWSCF are:
     Max number of different atomic species (ntypx) = 10
     Max number of k-points (npk) =  40000
     Max angular momentum in pseudopotentials (lmaxx) =  3
               file Si.pbe-n-kjpaw_psl.0.1.UPF: wavefunction(s)  3S renormalized

     Subspace diagonalization in iterative solution of the eigenvalue problem:
     a serial algorithm will be used

 
     G-vector sticks info
     --------------------
     sticks:   dense  smooth     PW     G-vecs:    dense   smooth      PW
     Sum         475     475    163                 6879     6879    1363
 


     bravais-lattice index     =            2
     lattice parameter (alat)  =      10.0000  a.u.
     unit-cell volume          =     250.0000 (a.u.)^3
     number of atoms/cell      =            2
     number of atomic types    =            1
     number of electrons       =         8.00
     number of Kohn-Sham states=            8
     kinetic-energy cutoff     =      35.0000  Ry
     charge density cutoff     =     140.0000  Ry
     convergence threshold     =      1.0E-06
     mixing beta               =       0.7000
     number of iterations used =            8  plain     mixing
     Exchange-correlation      =  SLA  PW   PBX  PBC ( 1  4  3  4 0 0)

     celldm(1)=  10.000000  celldm(2)=   0.000000  celldm(3)=   0.000000
     celldm(4)=   0.000000  celldm(5)=   0.000000  celldm(6)=   0.000000

     crystal axes: (cart. coord. in units of alat)
               a(1) = (  -0.500000   0.000000   0.500000 )  
               a(2) = (   0.000000   0.500000   0.500000 )  
               a(3) = (  -0.500000   0.500000   0.000000 )  

     reciprocal axes: (cart. coord. in units 2 pi/alat)
               b(1) = ( -1.000000 -1.000000  1.000000 )  
               b(2) = (  1.000000  1.000000  1.000000 )  
               b(3) = ( -1.000000  1.000000 -1.000000 )  


     PseudoPot. # 1 for Si read from file:
     /opt/home/guest1/upf_files/Si.pbe-n-kjpaw_psl.0.1.UPF
     MD5 check sum: b9d333a40e496bef61db012f150758bf
     Pseudo is Projector augmented-wave + core cor, Zval =  4.0
     Generated using "atomic" code by A. Dal Corso  v.5.0.2 svn rev. 9415
     Shape of augmentation charge: PSQ
     Using radial grid of 1141 points,  4 beta functions with: 
                l(1) =   0
                l(2) =   0
                l(3) =   1
                l(4) =   1
     Q(r) pseudized with 0 coefficients 


     atomic species   valence    mass     pseudopotential
        Si             4.00    28.08550     Si( 1.00)

     24 Sym. Ops. (no inversion) found
          (note: 24 additional sym.ops. were found but ignored
           their fractional translations are incommensurate with FFT grid)


   Cartesian axes

     site n.     atom                  positions (alat units)
         1           Si  tau(   1) = (   0.0000000   0.0000000   0.0000000  )
         2           Si  tau(   2) = (  -0.2500000   0.2500000   0.2500000  )

     number of k points=    28  Fermi-Dirac smearing, width (Ry)=  0.0036
                       cart. coord. in units 2pi/alat
        k(    1) = (  -0.0833333   0.0833333   0.0833333), wk =   0.0185185
        k(    2) = (  -0.2500000   0.2500000  -0.0833333), wk =   0.0555556
        k(    3) = (  -0.4166667   0.4166667  -0.2500000), wk =   0.0555556
        k(    4) = (   0.4166667  -0.4166667   0.5833333), wk =   0.0555556
        k(    5) = (   0.2500000  -0.2500000   0.4166667), wk =   0.0555556
        k(    6) = (   0.0833333  -0.0833333   0.2500000), wk =   0.0555556
        k(    7) = (  -0.0833333   0.4166667   0.0833333), wk =   0.0555556
        k(    8) = (  -0.2500000   0.5833333  -0.0833333), wk =   0.1111111
        k(    9) = (   0.5833333  -0.2500000   0.7500000), wk =   0.1111111
        k(   10) = (   0.4166667  -0.0833333   0.5833333), wk =   0.1111111
        k(   11) = (   0.2500000   0.0833333   0.4166667), wk =   0.1111111
        k(   12) = (  -0.0833333   0.7500000   0.0833333), wk =   0.0555556
        k(   13) = (   0.7500000  -0.0833333   0.9166667), wk =   0.1111111
        k(   14) = (   0.5833333   0.0833333   0.7500000), wk =   0.1111111
        k(   15) = (   0.4166667   0.2500000   0.5833333), wk =   0.1111111
        k(   16) = (  -0.0833333  -0.9166667   0.0833333), wk =   0.0555556
        k(   17) = (  -0.2500000  -0.7500000  -0.0833333), wk =   0.1111111
        k(   18) = (  -0.0833333  -0.5833333   0.0833333), wk =   0.0555556
        k(   19) = (  -0.2500000   0.2500000   0.2500000), wk =   0.0185185
        k(   20) = (  -0.4166667   0.4166667   0.0833333), wk =   0.0555556
        k(   21) = (   0.4166667  -0.4166667   0.9166667), wk =   0.0555556
        k(   22) = (   0.2500000  -0.2500000   0.7500000), wk =   0.0555556
        k(   23) = (  -0.2500000   0.5833333   0.2500000), wk =   0.0555556
        k(   24) = (   0.5833333  -0.2500000   1.0833333), wk =   0.1111111
        k(   25) = (   0.4166667  -0.0833333   0.9166667), wk =   0.1111111
        k(   26) = (  -0.2500000  -1.0833333   0.2500000), wk =   0.0555556
        k(   27) = (  -0.4166667   0.4166667   0.4166667), wk =   0.0185185
        k(   28) = (   0.4166667  -0.4166667   1.2500000), wk =   0.0555556

     Dense  grid:     6879 G-vectors     FFT dimensions: (  27,  27,  27)

     Estimated max dynamical RAM per process >       8.30MB

     Check: negative/imaginary core charge=   -0.000003    0.000000

     Initial potential from superposition of free atoms

     starting charge    7.99888, renormalised to    8.00000
     Starting wfc are    8 randomized atomic wfcs
     Checking if some PAW data can be deallocated... 

     total cpu time spent up to now is        0.6 secs

     per-process dynamical memory:    37.3 Mb

     Self-consistent Calculation

     iteration #  1     ecut=    35.00 Ry     beta=0.70
     Davidson diagonalization with overlap
     ethr =  1.00E-02,  avg # of iterations =  3.9

     Threshold (ethr) on eigenvalues was too large:
     Diagonalizing with lowered threshold

     Davidson diagonalization with overlap
     ethr =  8.25E-04,  avg # of iterations =  1.0

     total cpu time spent up to now is        1.5 secs

     total energy              =     -93.44226850 Ry
     Harris-Foulkes estimate   =     -93.46003503 Ry
     estimated scf accuracy    <       0.06529530 Ry

     iteration #  2     ecut=    35.00 Ry     beta=0.70
     Davidson diagonalization with overlap
     ethr =  8.16E-04,  avg # of iterations =  1.0

     total cpu time spent up to now is        1.9 secs

     total energy              =     -93.44566808 Ry
     Harris-Foulkes estimate   =     -93.44570849 Ry
     estimated scf accuracy    <       0.00203074 Ry

     iteration #  3     ecut=    35.00 Ry     beta=0.70
     Davidson diagonalization with overlap
     ethr =  2.54E-05,  avg # of iterations =  3.0

     total cpu time spent up to now is        2.4 secs

     total energy              =     -93.44576832 Ry
     Harris-Foulkes estimate   =     -93.44576318 Ry
     estimated scf accuracy    <       0.00006381 Ry

     iteration #  4     ecut=    35.00 Ry     beta=0.70
     Davidson diagonalization with overlap
     ethr =  7.98E-07,  avg # of iterations =  2.9

     total cpu time spent up to now is        2.8 secs

     End of self-consistent calculation

          k =-0.0833 0.0833 0.0833 (   881 PWs)   bands (ev):

    -5.3700   6.1845   6.8983   6.8983   9.7902   9.8784   9.8784  11.8777

          k =-0.2500 0.2500-0.0833 (   893 PWs)   bands (ev):

    -4.8577   4.0294   5.5617   6.6872  10.0105  10.2871  10.7042  13.2425

          k =-0.4167 0.4167-0.2500 (   874 PWs)   bands (ev):

    -3.6734   1.0708   5.0939   6.0047   9.5195  10.6085  10.6541  14.8336

          k = 0.4167-0.4167 0.5833 (   867 PWs)   bands (ev):

    -2.8928  -0.1831   5.1831   5.5891   9.3294  10.3089  10.7384  15.1650

          k = 0.2500-0.2500 0.4167 (   875 PWs)   bands (ev):

    -4.1227   1.9818   5.6396   5.7200   9.5275  10.4369  11.2148  13.1405

          k = 0.0833-0.0833 0.2500 (   894 PWs)   bands (ev):

    -5.1116   5.0999   6.1896   6.4312   9.3877  10.4977  10.8553  12.4301

          k =-0.0833 0.4167 0.0833 (   874 PWs)   bands (ev):

    -4.5992   3.8991   5.4021   5.4183   8.7489  11.0675  11.9029  12.1559

          k =-0.2500 0.5833-0.0833 (   869 PWs)   bands (ev):

    -3.6172   1.9577   3.9724   4.9926   9.1589  10.8022  11.8439  13.3298

          k = 0.5833-0.2500 0.7500 (   871 PWs)   bands (ev):

    -2.3836   0.0245   3.3554   4.7368   9.4124  11.0969  13.1328  13.6103

          k = 0.4167-0.0833 0.5833 (   872 PWs)   bands (ev):

    -3.1852   1.1985   3.2748   5.2757  10.1047  10.7309  12.5179  13.0166

          k = 0.2500 0.0833 0.4167 (   873 PWs)   bands (ev):

    -4.3554   2.9737   4.7275   6.0178   9.7249  10.8057  11.7743  11.9879

          k =-0.0833 0.7500 0.0833 (   871 PWs)   bands (ev):

    -2.8552   1.1316   3.9166   4.3012   7.8243   8.8011  15.0078  15.0479

          k = 0.7500-0.0833 0.9167 (   873 PWs)   bands (ev):

    -1.5558  -0.2979   2.9786   3.8427   8.4733   9.6694  14.4861  16.0820

          k = 0.5833 0.0833 0.7500 (   873 PWs)   bands (ev):

    -1.9326   0.0150   2.4646   4.4370   9.1482  12.2258  13.3013  14.0875

          k = 0.4167 0.2500 0.5833 (   876 PWs)   bands (ev):

    -3.0532   0.3917   4.3442   5.3876   9.8127  10.2486  11.7153  14.0244

          k =-0.0833-0.9167 0.0833 (   873 PWs)   bands (ev):

    -1.6664  -0.3124   3.6237   4.0715   7.6743   8.2789  16.5465  16.7291

          k =-0.2500-0.7500-0.0833 (   876 PWs)   bands (ev):

    -2.6671   0.8830   3.3483   4.2088   8.7135  10.0390  13.0776  14.9909

          k =-0.0833-0.5833 0.0833 (   864 PWs)   bands (ev):

    -3.8417   2.5711   4.5167   4.7523   8.1908   9.7621  13.4200  13.5505

          k =-0.2500 0.2500 0.2500 (   881 PWs)   bands (ev):

    -4.6100   2.9681   6.2434   6.2434   9.3394  10.6210  10.6210  14.2903

          k =-0.4167 0.4167 0.0833 (   874 PWs)   bands (ev):

    -3.8768   2.0326   3.9358   6.0700   9.9813  11.1452  11.3720  13.3918

          k = 0.4167-0.4167 0.9167 (   869 PWs)   bands (ev):

    -2.5903   0.5262   2.7225   5.2111   9.0451  12.5254  12.7133  14.4230

          k = 0.2500-0.2500 0.7500 (   866 PWs)   bands (ev):

    -2.5390   0.4436   3.2585   4.6852   8.4821  11.5478  13.1275  13.1905

          k =-0.2500 0.5833 0.2500 (   876 PWs)   bands (ev):

    -3.4163   1.1537   4.4857   5.0873   9.0411  11.5344  12.0502  12.2469

          k = 0.5833-0.2500 1.0833 (   871 PWs)   bands (ev):

    -2.3276   0.4442   2.8243   4.1957  10.2884  10.8935  11.9796  14.8465

          k = 0.4167-0.0833 0.9167 (   874 PWs)   bands (ev):

    -1.4241  -0.3061   2.6142   3.4601  10.0756  11.3658  12.4044  13.8166

          k =-0.2500-1.0833 0.2500 (   876 PWs)   bands (ev):

    -1.6483  -0.2322   2.4780   4.4761   8.1754  11.2705  14.4059  14.7997

          k =-0.4167 0.4167 0.4167 (   869 PWs)   bands (ev):

    -3.3062   0.2535   5.8379   5.8379   8.9186  10.4210  10.4210  14.9752

          k = 0.4167-0.4167 1.2500 (   868 PWs)   bands (ev):

    -2.6412  -0.0468   3.8800   5.3513   9.2621  11.3133  11.4949  15.3397

     the Fermi energy is     7.2757 ev

!    total energy              =     -93.44578289 Ry
     Harris-Foulkes estimate   =     -93.44578287 Ry
     estimated scf accuracy    <       0.00000012 Ry

     total all-electron energy =     -1160.137519 Ry

     The total energy is the sum of the following terms:

     one-electron contribution =       6.36322215 Ry
     hartree contribution      =       1.02980013 Ry
     xc contribution           =     -12.35097401 Ry
     ewald contribution        =     -17.23775377 Ry
     one-center paw contrib.   =     -71.25007629 Ry
     smearing contrib. (-TS)   =      -0.00000111 Ry

     convergence has been achieved in   4 iterations

     Writing output data file SCF.save
 
     init_run     :      0.37s CPU      0.38s WALL (       1 calls)
     electrons    :      2.22s CPU      2.25s WALL (       1 calls)

     Called by init_run:
     wfcinit      :      0.12s CPU      0.13s WALL (       1 calls)
     potinit      :      0.08s CPU      0.09s WALL (       1 calls)

     Called by electrons:
     c_bands      :      1.55s CPU      1.58s WALL (       5 calls)
     sum_band     :      0.33s CPU      0.34s WALL (       5 calls)
     v_of_rho     :      0.04s CPU      0.04s WALL (       5 calls)
     newd         :      0.01s CPU      0.01s WALL (       5 calls)
     PAW_pot      :      0.37s CPU      0.37s WALL (       5 calls)
     mix_rho      :      0.00s CPU      0.00s WALL (       5 calls)

     Called by c_bands:
     init_us_2    :      0.04s CPU      0.04s WALL (     308 calls)
     cegterg      :      1.46s CPU      1.48s WALL (     140 calls)

     Called by sum_band:
     sum_band:bec :      0.00s CPU      0.00s WALL (     140 calls)
     addusdens    :      0.01s CPU      0.02s WALL (       5 calls)

     Called by *egterg:
     h_psi        :      1.37s CPU      1.40s WALL (     500 calls)
     s_psi        :      0.02s CPU      0.02s WALL (     500 calls)
     g_psi        :      0.01s CPU      0.01s WALL (     332 calls)
     cdiaghg      :      0.06s CPU      0.06s WALL (     444 calls)

     Called by h_psi:
     h_psi:pot    :      1.37s CPU      1.39s WALL (     500 calls)
     h_psi:calbec :      0.03s CPU      0.02s WALL (     500 calls)
     vloc_psi     :      1.32s CPU      1.34s WALL (     500 calls)
     add_vuspsi   :      0.02s CPU      0.02s WALL (     500 calls)

     General routines
     calbec       :      0.03s CPU      0.03s WALL (     640 calls)
     fft          :      0.02s CPU      0.02s WALL (      67 calls)
     fftw         :      1.41s CPU      1.42s WALL (    7192 calls)
     davcio       :      0.00s CPU      0.01s WALL (      28 calls)
 
     Parallel routines
     fft_scatter  :      0.14s CPU      0.15s WALL (    7259 calls)
 
     PWSCF        :     2.86s CPU         2.93s WALL

 
   This run was terminated on:   8:30:13   9Sep2018            

=------------------------------------------------------------------------------=
   JOB DONE.
=------------------------------------------------------------------------------=
