
     Program PWSCF v.6.1 (svn rev. 13369) starts on  9Sep2018 at  8:30:19 

     This program is part of the open-source Quantum ESPRESSO suite
     for quantum simulation of materials; please cite
         "P. Giannozzi et al., J. Phys.:Condens. Matter 21 395502 (2009);
          URL http://www.quantum-espresso.org", 
     in publications or presentations arising from this work. More details at
     http://www.quantum-espresso.org/quote

     Parallel version (MPI), running on     1 processors
     Waiting for input...
     Reading input from standard input

     Current dimensions of program PWSCF are:
     Max number of different atomic species (ntypx) = 10
     Max number of k-points (npk) =  40000
     Max angular momentum in pseudopotentials (lmaxx) =  3
               file Si.pbe-n-kjpaw_psl.0.1.UPF: wavefunction(s)  3S renormalized

     Subspace diagonalization in iterative solution of the eigenvalue problem:
     a serial algorithm will be used

 
     G-vector sticks info
     --------------------
     sticks:   dense  smooth     PW     G-vecs:    dense   smooth      PW
     Sum         547     547    169                 8363     8363    1471
 


     bravais-lattice index     =            2
     lattice parameter (alat)  =      10.6000  a.u.
     unit-cell volume          =     297.7540 (a.u.)^3
     number of atoms/cell      =            2
     number of atomic types    =            1
     number of electrons       =         8.00
     number of Kohn-Sham states=            8
     kinetic-energy cutoff     =      35.0000  Ry
     charge density cutoff     =     140.0000  Ry
     convergence threshold     =      1.0E-06
     mixing beta               =       0.7000
     number of iterations used =            8  plain     mixing
     Exchange-correlation      =  SLA  PW   PBX  PBC ( 1  4  3  4 0 0)

     celldm(1)=  10.600000  celldm(2)=   0.000000  celldm(3)=   0.000000
     celldm(4)=   0.000000  celldm(5)=   0.000000  celldm(6)=   0.000000

     crystal axes: (cart. coord. in units of alat)
               a(1) = (  -0.500000   0.000000   0.500000 )  
               a(2) = (   0.000000   0.500000   0.500000 )  
               a(3) = (  -0.500000   0.500000   0.000000 )  

     reciprocal axes: (cart. coord. in units 2 pi/alat)
               b(1) = ( -1.000000 -1.000000  1.000000 )  
               b(2) = (  1.000000  1.000000  1.000000 )  
               b(3) = ( -1.000000  1.000000 -1.000000 )  


     PseudoPot. # 1 for Si read from file:
     /opt/home/guest1/upf_files/Si.pbe-n-kjpaw_psl.0.1.UPF
     MD5 check sum: b9d333a40e496bef61db012f150758bf
     Pseudo is Projector augmented-wave + core cor, Zval =  4.0
     Generated using "atomic" code by A. Dal Corso  v.5.0.2 svn rev. 9415
     Shape of augmentation charge: PSQ
     Using radial grid of 1141 points,  4 beta functions with: 
                l(1) =   0
                l(2) =   0
                l(3) =   1
                l(4) =   1
     Q(r) pseudized with 0 coefficients 


     atomic species   valence    mass     pseudopotential
        Si             4.00    28.08550     Si( 1.00)

     24 Sym. Ops. (no inversion) found
          (note: 24 additional sym.ops. were found but ignored
           their fractional translations are incommensurate with FFT grid)


   Cartesian axes

     site n.     atom                  positions (alat units)
         1           Si  tau(   1) = (   0.0000000   0.0000000   0.0000000  )
         2           Si  tau(   2) = (  -0.2500000   0.2500000   0.2500000  )

     number of k points=    28  Fermi-Dirac smearing, width (Ry)=  0.0036
                       cart. coord. in units 2pi/alat
        k(    1) = (  -0.0833333   0.0833333   0.0833333), wk =   0.0185185
        k(    2) = (  -0.2500000   0.2500000  -0.0833333), wk =   0.0555556
        k(    3) = (  -0.4166667   0.4166667  -0.2500000), wk =   0.0555556
        k(    4) = (   0.4166667  -0.4166667   0.5833333), wk =   0.0555556
        k(    5) = (   0.2500000  -0.2500000   0.4166667), wk =   0.0555556
        k(    6) = (   0.0833333  -0.0833333   0.2500000), wk =   0.0555556
        k(    7) = (  -0.0833333   0.4166667   0.0833333), wk =   0.0555556
        k(    8) = (  -0.2500000   0.5833333  -0.0833333), wk =   0.1111111
        k(    9) = (   0.5833333  -0.2500000   0.7500000), wk =   0.1111111
        k(   10) = (   0.4166667  -0.0833333   0.5833333), wk =   0.1111111
        k(   11) = (   0.2500000   0.0833333   0.4166667), wk =   0.1111111
        k(   12) = (  -0.0833333   0.7500000   0.0833333), wk =   0.0555556
        k(   13) = (   0.7500000  -0.0833333   0.9166667), wk =   0.1111111
        k(   14) = (   0.5833333   0.0833333   0.7500000), wk =   0.1111111
        k(   15) = (   0.4166667   0.2500000   0.5833333), wk =   0.1111111
        k(   16) = (  -0.0833333  -0.9166667   0.0833333), wk =   0.0555556
        k(   17) = (  -0.2500000  -0.7500000  -0.0833333), wk =   0.1111111
        k(   18) = (  -0.0833333  -0.5833333   0.0833333), wk =   0.0555556
        k(   19) = (  -0.2500000   0.2500000   0.2500000), wk =   0.0185185
        k(   20) = (  -0.4166667   0.4166667   0.0833333), wk =   0.0555556
        k(   21) = (   0.4166667  -0.4166667   0.9166667), wk =   0.0555556
        k(   22) = (   0.2500000  -0.2500000   0.7500000), wk =   0.0555556
        k(   23) = (  -0.2500000   0.5833333   0.2500000), wk =   0.0555556
        k(   24) = (   0.5833333  -0.2500000   1.0833333), wk =   0.1111111
        k(   25) = (   0.4166667  -0.0833333   0.9166667), wk =   0.1111111
        k(   26) = (  -0.2500000  -1.0833333   0.2500000), wk =   0.0555556
        k(   27) = (  -0.4166667   0.4166667   0.4166667), wk =   0.0185185
        k(   28) = (   0.4166667  -0.4166667   1.2500000), wk =   0.0555556

     Dense  grid:     8363 G-vectors     FFT dimensions: (  30,  30,  30)

     Estimated max dynamical RAM per process >      10.19MB

     Check: negative/imaginary core charge=   -0.000003    0.000000

     Initial potential from superposition of free atoms

     starting charge    7.99888, renormalised to    8.00000
     Starting wfc are    8 randomized atomic wfcs
     Checking if some PAW data can be deallocated... 

     total cpu time spent up to now is        0.6 secs

     per-process dynamical memory:    45.8 Mb

     Self-consistent Calculation

     iteration #  1     ecut=    35.00 Ry     beta=0.70
     Davidson diagonalization with overlap
     ethr =  1.00E-02,  avg # of iterations =  3.4

     Threshold (ethr) on eigenvalues was too large:
     Diagonalizing with lowered threshold

     Davidson diagonalization with overlap
     ethr =  6.21E-04,  avg # of iterations =  1.1

     total cpu time spent up to now is        1.6 secs

     total energy              =     -93.44796010 Ry
     Harris-Foulkes estimate   =     -93.45798287 Ry
     estimated scf accuracy    <       0.04901353 Ry

     iteration #  2     ecut=    35.00 Ry     beta=0.70
     Davidson diagonalization with overlap
     ethr =  6.13E-04,  avg # of iterations =  1.0

     total cpu time spent up to now is        2.0 secs

     total energy              =     -93.44955043 Ry
     Harris-Foulkes estimate   =     -93.44966920 Ry
     estimated scf accuracy    <       0.00218741 Ry

     iteration #  3     ecut=    35.00 Ry     beta=0.70
     Davidson diagonalization with overlap
     ethr =  2.73E-05,  avg # of iterations =  2.8

     total cpu time spent up to now is        2.5 secs

     total energy              =     -93.44961588 Ry
     Harris-Foulkes estimate   =     -93.44961398 Ry
     estimated scf accuracy    <       0.00003631 Ry

     iteration #  4     ecut=    35.00 Ry     beta=0.70
     Davidson diagonalization with overlap
     ethr =  4.54E-07,  avg # of iterations =  2.8

     total cpu time spent up to now is        3.0 secs

     End of self-consistent calculation

          k =-0.0833 0.0833 0.0833 (  1022 PWs)   bands (ev):

    -6.0053   4.3608   5.1068   5.1068   7.5307   7.9464   7.9464   8.4700

          k =-0.2500 0.2500-0.0833 (  1029 PWs)   bands (ev):

    -5.5664   2.3543   3.9758   4.9015   7.5995   8.3244   8.6185  10.3794

          k =-0.4167 0.4167-0.2500 (  1043 PWs)   bands (ev):

    -4.5706  -0.1956   3.5173   4.3127   7.1069   8.7640   8.8057  12.3047

          k = 0.4167-0.4167 0.5833 (  1042 PWs)   bands (ev):

    -3.9533  -1.2276   3.5622   3.9671   6.9704   8.5202   8.9251  12.8878

          k = 0.2500-0.2500 0.4167 (  1042 PWs)   bands (ev):

    -4.9434   0.5820   4.0231   4.0340   7.2478   8.4448   9.2260  11.0246

          k = 0.0833-0.0833 0.2500 (  1027 PWs)   bands (ev):

    -5.7834   3.2995   4.5240   4.6608   7.5041   8.1025   8.7691   9.5074

          k =-0.0833 0.4167 0.0833 (  1027 PWs)   bands (ev):

    -5.3437   2.1092   3.8165   3.8541   6.9860   8.8053   9.7829   9.9059

          k =-0.2500 0.5833-0.0833 (  1044 PWs)   bands (ev):

    -4.5088   0.3850   2.6247   3.4917   7.3610   8.8549   9.5907  10.9527

          k = 0.5833-0.2500 0.7500 (  1049 PWs)   bands (ev):

    -3.5102  -1.1828   2.0449   3.2915   7.5762   9.0289  10.8193  11.2699

          k = 0.4167-0.0833 0.5833 (  1041 PWs)   bands (ev):

    -4.1530  -0.2401   2.0380   3.7267   8.0577   8.7612  10.2720  10.7860

          k = 0.2500 0.0833 0.4167 (  1039 PWs)   bands (ev):

    -5.1375   1.3653   3.2606   4.3229   7.7532   8.4250   9.6065  10.0474

          k =-0.0833 0.7500 0.0833 (  1043 PWs)   bands (ev):

    -3.8510  -0.4304   2.6038   2.9016   6.2511   7.2016  12.3191  12.4589

          k = 0.7500-0.0833 0.9167 (  1044 PWs)   bands (ev):

    -2.7620  -1.6740   1.8563   2.5444   6.8417   7.8855  11.9537  13.2538

          k = 0.5833 0.0833 0.7500 (  1044 PWs)   bands (ev):

    -3.1226  -1.3253   1.4095   3.0402   7.3937  10.1192  11.0200  11.5653

          k = 0.4167 0.2500 0.5833 (  1042 PWs)   bands (ev):

    -4.0603  -0.8018   2.8508   3.8113   7.5807   8.4557   9.6288  11.7349

          k =-0.0833-0.9167 0.0833 (  1041 PWs)   bands (ev):

    -2.8360  -1.6770   2.3582   2.7015   6.1702   6.6977  13.7477  13.7574

          k =-0.2500-0.7500-0.0833 (  1043 PWs)   bands (ev):

    -3.7021  -0.6287   2.1334   2.8572   7.0220   8.2386  10.6701  12.3750

          k =-0.0833-0.5833 0.0833 (  1033 PWs)   bands (ev):

    -4.6946   0.8518   3.0950   3.2933   6.5299   8.0356  10.8961  11.1529

          k =-0.2500 0.2500 0.2500 (  1029 PWs)   bands (ev):

    -5.3560   1.4653   4.5378   4.5378   6.9155   8.6572   8.6572  11.3721

          k =-0.4167 0.4167 0.0833 (  1042 PWs)   bands (ev):

    -4.7339   0.5357   2.5892   4.3747   7.7787   9.1166   9.2487  10.9479

          k = 0.4167-0.4167 0.9167 (  1046 PWs)   bands (ev):

    -3.6654  -0.8323   1.5912   3.6611   7.2579  10.3578  10.3699  11.9349

          k = 0.2500-0.2500 0.7500 (  1039 PWs)   bands (ev):

    -3.6130  -0.9079   2.0130   3.2236   6.8346   9.5811  10.5384  10.9503

          k =-0.2500 0.5833 0.2500 (  1040 PWs)   bands (ev):

    -4.3479  -0.1976   2.9712   3.5667   7.2268   9.1581   9.9938  10.1779

          k = 0.5833-0.2500 1.0833 (  1048 PWs)   bands (ev):

    -3.4354  -0.9709   1.6880   2.8642   8.4056   8.8900   9.7864  12.3033

          k = 0.4167-0.0833 0.9167 (  1046 PWs)   bands (ev):

    -2.6780  -1.6814   1.5624   2.2651   8.2335   9.4676  10.0423  11.3902

          k =-0.2500-1.0833 0.2500 (  1040 PWs)   bands (ev):

    -2.8740  -1.5712   1.4465   3.0443   6.5917   9.3088  12.0000  12.0180

          k =-0.4167 0.4167 0.4167 (  1038 PWs)   bands (ev):

    -4.2795  -0.8614   4.1699   4.1699   6.4861   8.6455   8.6455  12.8698

          k = 0.4167-0.4167 1.2500 (  1051 PWs)   bands (ev):

    -3.7347  -1.1709   2.4656   3.7748   7.3302   9.0933   9.5594  12.8240

     the Fermi energy is     5.6248 ev

!    total energy              =     -93.44962520 Ry
     Harris-Foulkes estimate   =     -93.44962513 Ry
     estimated scf accuracy    <       0.00000017 Ry

     total all-electron energy =     -1160.141361 Ry

     The total energy is the sum of the following terms:

     one-electron contribution =       4.98948343 Ry
     hartree contribution      =       1.18497334 Ry
     xc contribution           =     -12.14332517 Ry
     ewald contribution        =     -16.26203185 Ry
     one-center paw contrib.   =     -71.21872487 Ry
     smearing contrib. (-TS)   =      -0.00000008 Ry

     convergence has been achieved in   4 iterations

     Writing output data file SCF.save
 
     init_run     :      0.40s CPU      0.41s WALL (       1 calls)
     electrons    :      2.40s CPU      2.44s WALL (       1 calls)

     Called by init_run:
     wfcinit      :      0.14s CPU      0.14s WALL (       1 calls)
     potinit      :      0.08s CPU      0.09s WALL (       1 calls)

     Called by electrons:
     c_bands      :      1.68s CPU      1.71s WALL (       5 calls)
     sum_band     :      0.37s CPU      0.38s WALL (       5 calls)
     v_of_rho     :      0.05s CPU      0.06s WALL (       5 calls)
     newd         :      0.01s CPU      0.02s WALL (       5 calls)
     PAW_pot      :      0.36s CPU      0.36s WALL (       5 calls)
     mix_rho      :      0.00s CPU      0.00s WALL (       5 calls)

     Called by c_bands:
     init_us_2    :      0.05s CPU      0.05s WALL (     308 calls)
     cegterg      :      1.58s CPU      1.60s WALL (     140 calls)

     Called by sum_band:
     sum_band:bec :      0.00s CPU      0.00s WALL (     140 calls)
     addusdens    :      0.02s CPU      0.02s WALL (       5 calls)

     Called by *egterg:
     h_psi        :      1.48s CPU      1.51s WALL (     480 calls)
     s_psi        :      0.03s CPU      0.03s WALL (     480 calls)
     g_psi        :      0.01s CPU      0.01s WALL (     312 calls)
     cdiaghg      :      0.05s CPU      0.06s WALL (     424 calls)

     Called by h_psi:
     h_psi:pot    :      1.48s CPU      1.50s WALL (     480 calls)
     h_psi:calbec :      0.03s CPU      0.03s WALL (     480 calls)
     vloc_psi     :      1.42s CPU      1.44s WALL (     480 calls)
     add_vuspsi   :      0.03s CPU      0.03s WALL (     480 calls)

     General routines
     calbec       :      0.04s CPU      0.04s WALL (     620 calls)
     fft          :      0.02s CPU      0.02s WALL (      67 calls)
     fftw         :      1.47s CPU      1.49s WALL (    7102 calls)
     davcio       :      0.00s CPU      0.01s WALL (      28 calls)
 
     Parallel routines
     fft_scatter  :      0.16s CPU      0.16s WALL (    7169 calls)
 
     PWSCF        :     3.05s CPU         3.12s WALL

 
   This run was terminated on:   8:30:22   9Sep2018            

=------------------------------------------------------------------------------=
   JOB DONE.
=------------------------------------------------------------------------------=
