
     Program PWSCF v.6.1 (svn rev. 13369) starts on  9Sep2018 at  8:30: 8 

     This program is part of the open-source Quantum ESPRESSO suite
     for quantum simulation of materials; please cite
         "P. Giannozzi et al., J. Phys.:Condens. Matter 21 395502 (2009);
          URL http://www.quantum-espresso.org", 
     in publications or presentations arising from this work. More details at
     http://www.quantum-espresso.org/quote

     Parallel version (MPI), running on     1 processors
     Waiting for input...
     Reading input from standard input

     Current dimensions of program PWSCF are:
     Max number of different atomic species (ntypx) = 10
     Max number of k-points (npk) =  40000
     Max angular momentum in pseudopotentials (lmaxx) =  3
               file Si.pbe-n-kjpaw_psl.0.1.UPF: wavefunction(s)  3S renormalized

     Subspace diagonalization in iterative solution of the eigenvalue problem:
     a serial algorithm will be used

 
     G-vector sticks info
     --------------------
     sticks:   dense  smooth     PW     G-vecs:    dense   smooth      PW
     Sum         463     463    151                 6615     6615    1243
 


     bravais-lattice index     =            2
     lattice parameter (alat)  =       9.8000  a.u.
     unit-cell volume          =     235.2980 (a.u.)^3
     number of atoms/cell      =            2
     number of atomic types    =            1
     number of electrons       =         8.00
     number of Kohn-Sham states=            8
     kinetic-energy cutoff     =      35.0000  Ry
     charge density cutoff     =     140.0000  Ry
     convergence threshold     =      1.0E-06
     mixing beta               =       0.7000
     number of iterations used =            8  plain     mixing
     Exchange-correlation      =  SLA  PW   PBX  PBC ( 1  4  3  4 0 0)

     celldm(1)=   9.800000  celldm(2)=   0.000000  celldm(3)=   0.000000
     celldm(4)=   0.000000  celldm(5)=   0.000000  celldm(6)=   0.000000

     crystal axes: (cart. coord. in units of alat)
               a(1) = (  -0.500000   0.000000   0.500000 )  
               a(2) = (   0.000000   0.500000   0.500000 )  
               a(3) = (  -0.500000   0.500000   0.000000 )  

     reciprocal axes: (cart. coord. in units 2 pi/alat)
               b(1) = ( -1.000000 -1.000000  1.000000 )  
               b(2) = (  1.000000  1.000000  1.000000 )  
               b(3) = ( -1.000000  1.000000 -1.000000 )  


     PseudoPot. # 1 for Si read from file:
     /opt/home/guest1/upf_files/Si.pbe-n-kjpaw_psl.0.1.UPF
     MD5 check sum: b9d333a40e496bef61db012f150758bf
     Pseudo is Projector augmented-wave + core cor, Zval =  4.0
     Generated using "atomic" code by A. Dal Corso  v.5.0.2 svn rev. 9415
     Shape of augmentation charge: PSQ
     Using radial grid of 1141 points,  4 beta functions with: 
                l(1) =   0
                l(2) =   0
                l(3) =   1
                l(4) =   1
     Q(r) pseudized with 0 coefficients 


     atomic species   valence    mass     pseudopotential
        Si             4.00    28.08550     Si( 1.00)

     24 Sym. Ops. (no inversion) found
          (note: 24 additional sym.ops. were found but ignored
           their fractional translations are incommensurate with FFT grid)


   Cartesian axes

     site n.     atom                  positions (alat units)
         1           Si  tau(   1) = (   0.0000000   0.0000000   0.0000000  )
         2           Si  tau(   2) = (  -0.2500000   0.2500000   0.2500000  )

     number of k points=    28  Fermi-Dirac smearing, width (Ry)=  0.0036
                       cart. coord. in units 2pi/alat
        k(    1) = (  -0.0833333   0.0833333   0.0833333), wk =   0.0185185
        k(    2) = (  -0.2500000   0.2500000  -0.0833333), wk =   0.0555556
        k(    3) = (  -0.4166667   0.4166667  -0.2500000), wk =   0.0555556
        k(    4) = (   0.4166667  -0.4166667   0.5833333), wk =   0.0555556
        k(    5) = (   0.2500000  -0.2500000   0.4166667), wk =   0.0555556
        k(    6) = (   0.0833333  -0.0833333   0.2500000), wk =   0.0555556
        k(    7) = (  -0.0833333   0.4166667   0.0833333), wk =   0.0555556
        k(    8) = (  -0.2500000   0.5833333  -0.0833333), wk =   0.1111111
        k(    9) = (   0.5833333  -0.2500000   0.7500000), wk =   0.1111111
        k(   10) = (   0.4166667  -0.0833333   0.5833333), wk =   0.1111111
        k(   11) = (   0.2500000   0.0833333   0.4166667), wk =   0.1111111
        k(   12) = (  -0.0833333   0.7500000   0.0833333), wk =   0.0555556
        k(   13) = (   0.7500000  -0.0833333   0.9166667), wk =   0.1111111
        k(   14) = (   0.5833333   0.0833333   0.7500000), wk =   0.1111111
        k(   15) = (   0.4166667   0.2500000   0.5833333), wk =   0.1111111
        k(   16) = (  -0.0833333  -0.9166667   0.0833333), wk =   0.0555556
        k(   17) = (  -0.2500000  -0.7500000  -0.0833333), wk =   0.1111111
        k(   18) = (  -0.0833333  -0.5833333   0.0833333), wk =   0.0555556
        k(   19) = (  -0.2500000   0.2500000   0.2500000), wk =   0.0185185
        k(   20) = (  -0.4166667   0.4166667   0.0833333), wk =   0.0555556
        k(   21) = (   0.4166667  -0.4166667   0.9166667), wk =   0.0555556
        k(   22) = (   0.2500000  -0.2500000   0.7500000), wk =   0.0555556
        k(   23) = (  -0.2500000   0.5833333   0.2500000), wk =   0.0555556
        k(   24) = (   0.5833333  -0.2500000   1.0833333), wk =   0.1111111
        k(   25) = (   0.4166667  -0.0833333   0.9166667), wk =   0.1111111
        k(   26) = (  -0.2500000  -1.0833333   0.2500000), wk =   0.0555556
        k(   27) = (  -0.4166667   0.4166667   0.4166667), wk =   0.0185185
        k(   28) = (   0.4166667  -0.4166667   1.2500000), wk =   0.0555556

     Dense  grid:     6615 G-vectors     FFT dimensions: (  27,  27,  27)

     Estimated max dynamical RAM per process >       7.95MB

     Check: negative/imaginary core charge=   -0.000003    0.000000

     Initial potential from superposition of free atoms

     starting charge    7.99888, renormalised to    8.00000
     Starting wfc are    8 randomized atomic wfcs
     Checking if some PAW data can be deallocated... 

     total cpu time spent up to now is        0.6 secs

     per-process dynamical memory:    31.1 Mb

     Self-consistent Calculation

     iteration #  1     ecut=    35.00 Ry     beta=0.70
     Davidson diagonalization with overlap
     ethr =  1.00E-02,  avg # of iterations =  4.1

     Threshold (ethr) on eigenvalues was too large:
     Diagonalizing with lowered threshold

     Davidson diagonalization with overlap
     ethr =  9.04E-04,  avg # of iterations =  1.0

     total cpu time spent up to now is        1.5 secs

     total energy              =     -93.42652985 Ry
     Harris-Foulkes estimate   =     -93.44757652 Ry
     estimated scf accuracy    <       0.07165279 Ry

     iteration #  2     ecut=    35.00 Ry     beta=0.70
     Davidson diagonalization with overlap
     ethr =  8.96E-04,  avg # of iterations =  1.0

     total cpu time spent up to now is        1.9 secs

     total energy              =     -93.43072532 Ry
     Harris-Foulkes estimate   =     -93.43073011 Ry
     estimated scf accuracy    <       0.00196214 Ry

     iteration #  3     ecut=    35.00 Ry     beta=0.70
     Davidson diagonalization with overlap
     ethr =  2.45E-05,  avg # of iterations =  2.9

     total cpu time spent up to now is        2.3 secs

     total energy              =     -93.43084262 Ry
     Harris-Foulkes estimate   =     -93.43083552 Ry
     estimated scf accuracy    <       0.00007209 Ry

     iteration #  4     ecut=    35.00 Ry     beta=0.70
     Davidson diagonalization with overlap
     ethr =  9.01E-07,  avg # of iterations =  3.0

     total cpu time spent up to now is        2.8 secs

     End of self-consistent calculation

          k =-0.0833 0.0833 0.0833 (   851 PWs)   bands (ev):

    -5.1232   6.8668   7.5890   7.5890  10.5638  10.6117  10.6117  13.2717

          k =-0.2500 0.2500-0.0833 (   828 PWs)   bands (ev):

    -4.5837   4.6499   6.1758   7.3789  10.8786  11.0290  11.4929  14.2398

          k =-0.4167 0.4167-0.2500 (   822 PWs)   bands (ev):

    -3.3286   1.5434   5.7057   6.6621  10.4142  11.2940  11.3518  15.5119

          k = 0.4167-0.4167 0.5833 (   821 PWs)   bands (ev):

    -2.4822   0.2031   5.8131   6.2193  10.1812  11.0113  11.4147  15.9999

          k = 0.2500-0.2500 0.4167 (   832 PWs)   bands (ev):

    -3.8069   2.5032   6.2613   6.3792  10.3326  11.2169  11.9585  13.9169

          k = 0.0833-0.0833 0.2500 (   838 PWs)   bands (ev):

    -4.8514   5.7640   6.8318   7.1186  10.0983  11.3424  11.6465  13.3804

          k =-0.0833 0.4167 0.0833 (   832 PWs)   bands (ev):

    -4.3119   4.5609   6.0007   6.0467   9.4185  11.7737  12.7677  13.0044

          k =-0.2500 0.5833-0.0833 (   825 PWs)   bands (ev):

    -3.2750   2.5450   4.5007   5.5740   9.8319  11.4648  12.7291  14.2297

          k = 0.5833-0.2500 0.7500 (   824 PWs)   bands (ev):

    -1.9483   0.4681   3.8745   5.2949  10.0786  11.8705  13.9326  14.5707

          k = 0.4167-0.0833 0.5833 (   821 PWs)   bands (ev):

    -2.8139   1.7342   3.7619   5.8753  10.8251  11.4878  13.3191  13.8868

          k = 0.2500 0.0833 0.4167 (   832 PWs)   bands (ev):

    -4.0541   3.5696   5.2990   6.6762  10.4520  11.6643  12.5950  12.7037

          k =-0.0833 0.7500 0.0833 (   818 PWs)   bands (ev):

    -2.4743   1.7252   4.4251   4.8454   8.4177   9.3910  15.9473  16.0629

          k = 0.7500-0.0833 0.9167 (   814 PWs)   bands (ev):

    -1.0945   0.2278   3.4120   4.3456   9.0850  10.3372  15.4198  17.0681

          k = 0.5833 0.0833 0.7500 (   821 PWs)   bands (ev):

    -1.4735   0.5174   2.8781   4.9773   9.7976  12.9995  14.1349  15.0031

          k = 0.4167 0.2500 0.5833 (   822 PWs)   bands (ev):

    -2.6658   0.8344   4.9282   5.9985  10.5779  10.9638  12.5105  14.8856

          k =-0.0833-0.9167 0.0833 (   813 PWs)   bands (ev):

    -1.2204   0.2071   4.1145   4.6050   8.2384   8.8727  17.5499  17.8036

          k =-0.2500-0.7500-0.0833 (   819 PWs)   bands (ev):

    -2.2709   1.4565   3.8215   4.7306   9.3465  10.7037  13.9743  15.9656

          k =-0.0833-0.5833 0.0833 (   830 PWs)   bands (ev):

    -3.5141   3.2187   5.0699   5.3181   8.8205  10.3749  14.3730  14.4460

          k =-0.2500 0.2500 0.2500 (   821 PWs)   bands (ev):

    -4.3221   3.5280   6.9036   6.9036  10.2328  11.3586  11.3586  15.0109

          k =-0.4167 0.4167 0.0833 (   822 PWs)   bands (ev):

    -3.5474   2.5885   4.4634   6.7278  10.7638  11.9037  12.1872  14.0671

          k = 0.4167-0.4167 0.9167 (   821 PWs)   bands (ev):

    -2.1771   1.0321   3.1689   5.8126   9.6986  13.3272  13.5692  15.1771

          k = 0.2500-0.2500 0.7500 (   818 PWs)   bands (ev):

    -2.1269   0.9472   3.7495   5.2528   9.0910  12.2677  13.9352  14.2126

          k =-0.2500 0.5833 0.2500 (   820 PWs)   bands (ev):

    -3.0587   1.6555   5.0800   5.6769   9.6991  12.3593  12.8171  13.1071

          k = 0.5833-0.2500 1.0833 (   820 PWs)   bands (ev):

    -1.9024   0.9766   3.2715   4.7083  10.9726  11.6393  12.8073  15.7549

          k = 0.4167-0.0833 0.9167 (   818 PWs)   bands (ev):

    -0.9414   0.2190   3.0209   3.9199  10.7597  12.0752  13.2844  14.7177

          k =-0.2500-1.0833 0.2500 (   820 PWs)   bands (ev):

    -1.1762   0.2748   2.8773   5.0326   8.7651  11.9988  15.2860  15.8425

          k =-0.4167 0.4167 0.4167 (   820 PWs)   bands (ev):

    -2.9314   0.6700   6.4864   6.4864   9.8334  11.0821  11.0821  15.7506

          k = 0.4167-0.4167 1.2500 (   825 PWs)   bands (ev):

    -2.2182   0.3664   4.4347   5.9632   9.9485  12.1738  12.2150  16.2829

     the Fermi energy is     7.9036 ev

!    total energy              =     -93.43086082 Ry
     Harris-Foulkes estimate   =     -93.43086084 Ry
     estimated scf accuracy    <       0.00000014 Ry

     total all-electron energy =     -1160.122597 Ry

     The total energy is the sum of the following terms:

     one-electron contribution =       6.87341056 Ry
     hartree contribution      =       0.97812264 Ry
     xc contribution           =     -12.42891885 Ry
     ewald contribution        =     -17.58954466 Ry
     one-center paw contrib.   =     -71.26392711 Ry
     smearing contrib. (-TS)   =      -0.00000340 Ry

     convergence has been achieved in   4 iterations

     Writing output data file SCF.save
 
     init_run     :      0.37s CPU      0.37s WALL (       1 calls)
     electrons    :      2.22s CPU      2.25s WALL (       1 calls)

     Called by init_run:
     wfcinit      :      0.12s CPU      0.12s WALL (       1 calls)
     potinit      :      0.09s CPU      0.09s WALL (       1 calls)

     Called by electrons:
     c_bands      :      1.56s CPU      1.58s WALL (       5 calls)
     sum_band     :      0.33s CPU      0.33s WALL (       5 calls)
     v_of_rho     :      0.04s CPU      0.04s WALL (       5 calls)
     newd         :      0.01s CPU      0.01s WALL (       5 calls)
     PAW_pot      :      0.36s CPU      0.36s WALL (       5 calls)
     mix_rho      :      0.00s CPU      0.00s WALL (       5 calls)

     Called by c_bands:
     init_us_2    :      0.04s CPU      0.04s WALL (     308 calls)
     cegterg      :      1.47s CPU      1.49s WALL (     140 calls)

     Called by sum_band:
     sum_band:bec :      0.00s CPU      0.00s WALL (     140 calls)
     addusdens    :      0.01s CPU      0.01s WALL (       5 calls)

     Called by *egterg:
     h_psi        :      1.38s CPU      1.40s WALL (     503 calls)
     s_psi        :      0.02s CPU      0.02s WALL (     503 calls)
     g_psi        :      0.01s CPU      0.01s WALL (     335 calls)
     cdiaghg      :      0.06s CPU      0.06s WALL (     447 calls)

     Called by h_psi:
     h_psi:pot    :      1.37s CPU      1.39s WALL (     503 calls)
     h_psi:calbec :      0.03s CPU      0.03s WALL (     503 calls)
     vloc_psi     :      1.32s CPU      1.34s WALL (     503 calls)
     add_vuspsi   :      0.02s CPU      0.02s WALL (     503 calls)

     General routines
     calbec       :      0.03s CPU      0.03s WALL (     643 calls)
     fft          :      0.02s CPU      0.02s WALL (      67 calls)
     fftw         :      1.41s CPU      1.42s WALL (    7264 calls)
     davcio       :      0.00s CPU      0.01s WALL (      28 calls)
 
     Parallel routines
     fft_scatter  :      0.14s CPU      0.15s WALL (    7331 calls)
 
     PWSCF        :     2.85s CPU         2.91s WALL

 
   This run was terminated on:   8:30:10   9Sep2018            

=------------------------------------------------------------------------------=
   JOB DONE.
=------------------------------------------------------------------------------=
