
     Program PWSCF v.6.1 (svn rev. 13369) starts on  9Sep2018 at  8:30:22 

     This program is part of the open-source Quantum ESPRESSO suite
     for quantum simulation of materials; please cite
         "P. Giannozzi et al., J. Phys.:Condens. Matter 21 395502 (2009);
          URL http://www.quantum-espresso.org", 
     in publications or presentations arising from this work. More details at
     http://www.quantum-espresso.org/quote

     Parallel version (MPI), running on     1 processors
     Waiting for input...
     Reading input from standard input

     Current dimensions of program PWSCF are:
     Max number of different atomic species (ntypx) = 10
     Max number of k-points (npk) =  40000
     Max angular momentum in pseudopotentials (lmaxx) =  3
               file Si.pbe-n-kjpaw_psl.0.1.UPF: wavefunction(s)  3S renormalized

     Subspace diagonalization in iterative solution of the eigenvalue problem:
     a serial algorithm will be used

 
     G-vector sticks info
     --------------------
     sticks:   dense  smooth     PW     G-vecs:    dense   smooth      PW
     Sum         559     559    187                 8801     8801    1639
 


     bravais-lattice index     =            2
     lattice parameter (alat)  =      10.8000  a.u.
     unit-cell volume          =     314.9280 (a.u.)^3
     number of atoms/cell      =            2
     number of atomic types    =            1
     number of electrons       =         8.00
     number of Kohn-Sham states=            8
     kinetic-energy cutoff     =      35.0000  Ry
     charge density cutoff     =     140.0000  Ry
     convergence threshold     =      1.0E-06
     mixing beta               =       0.7000
     number of iterations used =            8  plain     mixing
     Exchange-correlation      =  SLA  PW   PBX  PBC ( 1  4  3  4 0 0)

     celldm(1)=  10.800000  celldm(2)=   0.000000  celldm(3)=   0.000000
     celldm(4)=   0.000000  celldm(5)=   0.000000  celldm(6)=   0.000000

     crystal axes: (cart. coord. in units of alat)
               a(1) = (  -0.500000   0.000000   0.500000 )  
               a(2) = (   0.000000   0.500000   0.500000 )  
               a(3) = (  -0.500000   0.500000   0.000000 )  

     reciprocal axes: (cart. coord. in units 2 pi/alat)
               b(1) = ( -1.000000 -1.000000  1.000000 )  
               b(2) = (  1.000000  1.000000  1.000000 )  
               b(3) = ( -1.000000  1.000000 -1.000000 )  


     PseudoPot. # 1 for Si read from file:
     /opt/home/guest1/upf_files/Si.pbe-n-kjpaw_psl.0.1.UPF
     MD5 check sum: b9d333a40e496bef61db012f150758bf
     Pseudo is Projector augmented-wave + core cor, Zval =  4.0
     Generated using "atomic" code by A. Dal Corso  v.5.0.2 svn rev. 9415
     Shape of augmentation charge: PSQ
     Using radial grid of 1141 points,  4 beta functions with: 
                l(1) =   0
                l(2) =   0
                l(3) =   1
                l(4) =   1
     Q(r) pseudized with 0 coefficients 


     atomic species   valence    mass     pseudopotential
        Si             4.00    28.08550     Si( 1.00)

     24 Sym. Ops. (no inversion) found
          (note: 24 additional sym.ops. were found but ignored
           their fractional translations are incommensurate with FFT grid)


   Cartesian axes

     site n.     atom                  positions (alat units)
         1           Si  tau(   1) = (   0.0000000   0.0000000   0.0000000  )
         2           Si  tau(   2) = (  -0.2500000   0.2500000   0.2500000  )

     number of k points=    28  Fermi-Dirac smearing, width (Ry)=  0.0036
                       cart. coord. in units 2pi/alat
        k(    1) = (  -0.0833333   0.0833333   0.0833333), wk =   0.0185185
        k(    2) = (  -0.2500000   0.2500000  -0.0833333), wk =   0.0555556
        k(    3) = (  -0.4166667   0.4166667  -0.2500000), wk =   0.0555556
        k(    4) = (   0.4166667  -0.4166667   0.5833333), wk =   0.0555556
        k(    5) = (   0.2500000  -0.2500000   0.4166667), wk =   0.0555556
        k(    6) = (   0.0833333  -0.0833333   0.2500000), wk =   0.0555556
        k(    7) = (  -0.0833333   0.4166667   0.0833333), wk =   0.0555556
        k(    8) = (  -0.2500000   0.5833333  -0.0833333), wk =   0.1111111
        k(    9) = (   0.5833333  -0.2500000   0.7500000), wk =   0.1111111
        k(   10) = (   0.4166667  -0.0833333   0.5833333), wk =   0.1111111
        k(   11) = (   0.2500000   0.0833333   0.4166667), wk =   0.1111111
        k(   12) = (  -0.0833333   0.7500000   0.0833333), wk =   0.0555556
        k(   13) = (   0.7500000  -0.0833333   0.9166667), wk =   0.1111111
        k(   14) = (   0.5833333   0.0833333   0.7500000), wk =   0.1111111
        k(   15) = (   0.4166667   0.2500000   0.5833333), wk =   0.1111111
        k(   16) = (  -0.0833333  -0.9166667   0.0833333), wk =   0.0555556
        k(   17) = (  -0.2500000  -0.7500000  -0.0833333), wk =   0.1111111
        k(   18) = (  -0.0833333  -0.5833333   0.0833333), wk =   0.0555556
        k(   19) = (  -0.2500000   0.2500000   0.2500000), wk =   0.0185185
        k(   20) = (  -0.4166667   0.4166667   0.0833333), wk =   0.0555556
        k(   21) = (   0.4166667  -0.4166667   0.9166667), wk =   0.0555556
        k(   22) = (   0.2500000  -0.2500000   0.7500000), wk =   0.0555556
        k(   23) = (  -0.2500000   0.5833333   0.2500000), wk =   0.0555556
        k(   24) = (   0.5833333  -0.2500000   1.0833333), wk =   0.1111111
        k(   25) = (   0.4166667  -0.0833333   0.9166667), wk =   0.1111111
        k(   26) = (  -0.2500000  -1.0833333   0.2500000), wk =   0.0555556
        k(   27) = (  -0.4166667   0.4166667   0.4166667), wk =   0.0185185
        k(   28) = (   0.4166667  -0.4166667   1.2500000), wk =   0.0555556

     Dense  grid:     8801 G-vectors     FFT dimensions: (  30,  30,  30)

     Estimated max dynamical RAM per process >      10.65MB

     Check: negative/imaginary core charge=   -0.000003    0.000000

     Initial potential from superposition of free atoms

     starting charge    7.99888, renormalised to    8.00000
     Starting wfc are    8 randomized atomic wfcs
     Checking if some PAW data can be deallocated... 

     total cpu time spent up to now is        0.6 secs

     per-process dynamical memory:    46.5 Mb

     Self-consistent Calculation

     iteration #  1     ecut=    35.00 Ry     beta=0.70
     Davidson diagonalization with overlap
     ethr =  1.00E-02,  avg # of iterations =  3.3

     Threshold (ethr) on eigenvalues was too large:
     Diagonalizing with lowered threshold

     Davidson diagonalization with overlap
     ethr =  5.64E-04,  avg # of iterations =  1.1

     total cpu time spent up to now is        1.6 secs

     total energy              =     -93.43973705 Ry
     Harris-Foulkes estimate   =     -93.44783958 Ry
     estimated scf accuracy    <       0.04449247 Ry

     iteration #  2     ecut=    35.00 Ry     beta=0.70
     Davidson diagonalization with overlap
     ethr =  5.56E-04,  avg # of iterations =  1.0

     total cpu time spent up to now is        2.0 secs

     total energy              =     -93.44090862 Ry
     Harris-Foulkes estimate   =     -93.44104276 Ry
     estimated scf accuracy    <       0.00221668 Ry

     iteration #  3     ecut=    35.00 Ry     beta=0.70
     Davidson diagonalization with overlap
     ethr =  2.77E-05,  avg # of iterations =  2.8

     total cpu time spent up to now is        2.5 secs

     total energy              =     -93.44096638 Ry
     Harris-Foulkes estimate   =     -93.44096521 Ry
     estimated scf accuracy    <       0.00002746 Ry

     iteration #  4     ecut=    35.00 Ry     beta=0.70
     Davidson diagonalization with overlap
     ethr =  3.43E-07,  avg # of iterations =  2.9

     total cpu time spent up to now is        3.1 secs

     End of self-consistent calculation

          k =-0.0833 0.0833 0.0833 (  1097 PWs)   bands (ev):

    -6.1879   3.8068   4.5909   4.5909   6.6914   7.3798   7.3798   7.6837

          k =-0.2500 0.2500-0.0833 (  1099 PWs)   bands (ev):

    -5.7709   1.8446   3.5211   4.3894   6.8514   7.7467   8.0059   9.5408

          k =-0.4167 0.4167-0.2500 (  1101 PWs)   bands (ev):

    -4.8307  -0.5776   3.0662   3.8290   6.3902   8.2111   8.2561  11.5192

          k = 0.4167-0.4167 0.5833 (  1101 PWs)   bands (ev):

    -4.2584  -1.5456   3.0991   3.5033   6.2651   7.9966   8.3827  12.1899

          k = 0.2500-0.2500 0.4167 (  1097 PWs)   bands (ev):

    -5.1812   0.1591   3.5380   3.5735   6.5468   7.8690   8.6338  10.3677

          k = 0.0833-0.0833 0.2500 (  1103 PWs)   bands (ev):

    -5.9769   2.7474   4.0442   4.1550   6.9330   7.3344   8.1570   8.6925

          k =-0.0833 0.4167 0.0833 (  1096 PWs)   bands (ev):

    -5.5589   1.5673   3.3622   3.4094   6.4689   8.0319   9.1847   9.2422

          k =-0.2500 0.5833-0.0833 (  1093 PWs)   bands (ev):

    -4.7679  -0.0855   2.2423   3.0615   6.8249   8.1776   9.0024  10.2523

          k = 0.5833-0.2500 0.7500 (  1104 PWs)   bands (ev):

    -3.8353  -1.5501   1.6779   2.8760   7.0046   8.4176  10.0973  10.6232

          k = 0.4167-0.0833 0.5833 (  1103 PWs)   bands (ev):

    -4.4341  -0.6716   1.6888   3.2824   7.4082   8.1888   9.5942  10.1333

          k = 0.2500 0.0833 0.4167 (  1095 PWs)   bands (ev):

    -5.3640   0.8782   2.8424   3.8382   7.1371   7.7219   8.9679   9.4478

          k =-0.0833 0.7500 0.0833 (  1096 PWs)   bands (ev):

    -4.1413  -0.8895   2.2275   2.5017   5.7864   6.7128  11.5081  11.6896

          k = 0.7500-0.0833 0.9167 (  1103 PWs)   bands (ev):

    -3.1135  -2.0760   1.5333   2.1720   6.3546   7.3510  11.1933  12.3835

          k = 0.5833 0.0833 0.7500 (  1104 PWs)   bands (ev):

    -3.4665  -1.7236   1.1095   2.6392   6.8607   9.4715  10.3315  10.7977

          k = 0.4167 0.2500 0.5833 (  1105 PWs)   bands (ev):

    -4.3519  -1.1635   2.4274   3.3597   6.8908   7.9324   9.0169  11.0532

          k =-0.0833-0.9167 0.0833 (  1103 PWs)   bands (ev):

    -3.1780  -2.0769   1.9956   2.3105   5.7222   6.2259  12.8556  12.8859

          k =-0.2500-0.7500-0.0833 (  1094 PWs)   bands (ev):

    -4.0036  -1.0736   1.7866   2.4685   6.5173   7.6858   9.9618  11.5936

          k =-0.0833-0.5833 0.0833 (  1093 PWs)   bands (ev):

    -4.9424   0.3418   2.6888   2.8755   6.0420   7.4813  10.1628  10.4390

          k =-0.2500 0.2500 0.2500 (  1095 PWs)   bands (ev):

    -5.5717   1.0108   4.0484   4.0484   6.1864   8.0755   8.0755  10.4424

          k =-0.4167 0.4167 0.0833 (  1098 PWs)   bands (ev):

    -4.9825   0.0841   2.2073   3.8894   7.0914   8.5138   8.6314  10.1929

          k = 0.4167-0.4167 0.9167 (  1108 PWs)   bands (ev):

    -3.9771  -1.2392   1.2720   3.2174   6.7084   9.6602   9.7069  11.1359

          k = 0.2500-0.2500 0.7500 (  1102 PWs)   bands (ev):

    -3.9249  -1.3129   1.6616   2.8055   6.3351   8.9541   9.8072  10.2954

          k =-0.2500 0.5833 0.2500 (  1096 PWs)   bands (ev):

    -4.6184  -0.6061   2.5433   3.1312   6.6642   8.4364   9.3790   9.6019

          k = 0.5833-0.2500 1.0833 (  1101 PWs)   bands (ev):

    -3.7570  -1.3902   1.3662   2.4802   7.8140   8.2876   9.1564  11.5076

          k = 0.4167-0.0833 0.9167 (  1105 PWs)   bands (ev):

    -3.0413  -2.0832   1.2599   1.9201   7.6748   8.8830   9.3569  10.6660

          k =-0.2500-1.0833 0.2500 (  1109 PWs)   bands (ev):

    -3.2288  -1.9657   1.1502   2.6351   6.1151   8.7136  11.2011  11.2691

          k =-0.4167 0.4167 0.4167 (  1107 PWs)   bands (ev):

    -4.5610  -1.1977   3.6933   3.6933   5.7705   8.1140   8.1140  12.2159

          k = 0.4167-0.4167 1.2500 (  1100 PWs)   bands (ev):

    -4.0497  -1.5142   2.0660   3.3237   6.7208   8.4643   8.9790  12.0600

     the Fermi energy is     5.1390 ev

!    total energy              =     -93.44097479 Ry
     Harris-Foulkes estimate   =     -93.44097475 Ry
     estimated scf accuracy    <       0.00000019 Ry

     total all-electron energy =     -1160.132711 Ry

     The total energy is the sum of the following terms:

     one-electron contribution =       4.57619554 Ry
     hartree contribution      =       1.23717073 Ry
     xc contribution           =     -12.08222644 Ry
     ewald contribution        =     -15.96088312 Ry
     one-center paw contrib.   =     -71.21123146 Ry
     smearing contrib. (-TS)   =      -0.00000005 Ry

     convergence has been achieved in   4 iterations

     Writing output data file SCF.save
 
     init_run     :      0.40s CPU      0.41s WALL (       1 calls)
     electrons    :      2.44s CPU      2.48s WALL (       1 calls)

     Called by init_run:
     wfcinit      :      0.14s CPU      0.15s WALL (       1 calls)
     potinit      :      0.08s CPU      0.09s WALL (       1 calls)

     Called by electrons:
     c_bands      :      1.72s CPU      1.74s WALL (       5 calls)
     sum_band     :      0.37s CPU      0.38s WALL (       5 calls)
     v_of_rho     :      0.05s CPU      0.06s WALL (       5 calls)
     newd         :      0.01s CPU      0.02s WALL (       5 calls)
     PAW_pot      :      0.36s CPU      0.36s WALL (       5 calls)
     mix_rho      :      0.00s CPU      0.00s WALL (       5 calls)

     Called by c_bands:
     init_us_2    :      0.05s CPU      0.06s WALL (     308 calls)
     cegterg      :      1.61s CPU      1.63s WALL (     140 calls)

     Called by sum_band:
     sum_band:bec :      0.00s CPU      0.00s WALL (     140 calls)
     addusdens    :      0.02s CPU      0.02s WALL (       5 calls)

     Called by *egterg:
     h_psi        :      1.50s CPU      1.53s WALL (     476 calls)
     s_psi        :      0.03s CPU      0.03s WALL (     476 calls)
     g_psi        :      0.01s CPU      0.01s WALL (     308 calls)
     cdiaghg      :      0.05s CPU      0.05s WALL (     420 calls)

     Called by h_psi:
     h_psi:pot    :      1.50s CPU      1.52s WALL (     476 calls)
     h_psi:calbec :      0.03s CPU      0.03s WALL (     476 calls)
     vloc_psi     :      1.44s CPU      1.45s WALL (     476 calls)
     add_vuspsi   :      0.03s CPU      0.03s WALL (     476 calls)

     General routines
     calbec       :      0.04s CPU      0.04s WALL (     616 calls)
     fft          :      0.02s CPU      0.02s WALL (      67 calls)
     fftw         :      1.49s CPU      1.51s WALL (    7100 calls)
     davcio       :      0.00s CPU      0.01s WALL (      28 calls)
 
     Parallel routines
     fft_scatter  :      0.16s CPU      0.17s WALL (    7167 calls)
 
     PWSCF        :     3.10s CPU         3.16s WALL

 
   This run was terminated on:   8:30:26   9Sep2018            

=------------------------------------------------------------------------------=
   JOB DONE.
=------------------------------------------------------------------------------=
