
     Program PWSCF v.6.1 (svn rev. 13369) starts on  9Sep2018 at 10:39:52 

     This program is part of the open-source Quantum ESPRESSO suite
     for quantum simulation of materials; please cite
         "P. Giannozzi et al., J. Phys.:Condens. Matter 21 395502 (2009);
          URL http://www.quantum-espresso.org", 
     in publications or presentations arising from this work. More details at
     http://www.quantum-espresso.org/quote

     Parallel version (MPI), running on     1 processors
     Waiting for input...
     Reading input from standard input

     Current dimensions of program PWSCF are:
     Max number of different atomic species (ntypx) = 10
     Max number of k-points (npk) =  40000
     Max angular momentum in pseudopotentials (lmaxx) =  3
               file Si.pbe-n-kjpaw_psl.0.1.UPF: wavefunction(s)  3S renormalized

     Subspace diagonalization in iterative solution of the eigenvalue problem:
     a serial algorithm will be used

     Found symmetry operation: I + (  0.0000 -0.5000 -0.5000)
     This is a supercell, fractional translations are disabled
 
     G-vector sticks info
     --------------------
     sticks:   dense  smooth     PW     G-vecs:    dense   smooth      PW
     Sum        1185    1185    341                30215    30215    4697
 


     bravais-lattice index     =            1
     lattice parameter (alat)  =      10.2629  a.u.
     unit-cell volume          =    1080.9660 (a.u.)^3
     number of atoms/cell      =            8
     number of atomic types    =            1
     number of electrons       =        32.00
     number of Kohn-Sham states=           20
     kinetic-energy cutoff     =      35.0000  Ry
     charge density cutoff     =     140.0000  Ry
     convergence threshold     =      1.0E-06
     mixing beta               =       0.7000
     number of iterations used =            8  plain     mixing
     Exchange-correlation      =  SLA  PW   PBX  PBC ( 1  4  3  4 0 0)

     celldm(1)=  10.262914  celldm(2)=   0.000000  celldm(3)=   0.000000
     celldm(4)=   0.000000  celldm(5)=   0.000000  celldm(6)=   0.000000

     crystal axes: (cart. coord. in units of alat)
               a(1) = (   1.000000   0.000000   0.000000 )  
               a(2) = (   0.000000   1.000000   0.000000 )  
               a(3) = (   0.000000   0.000000   1.000000 )  

     reciprocal axes: (cart. coord. in units 2 pi/alat)
               b(1) = (  1.000000  0.000000  0.000000 )  
               b(2) = (  0.000000  1.000000  0.000000 )  
               b(3) = (  0.000000  0.000000  1.000000 )  


     PseudoPot. # 1 for Si read from file:
     /opt/home/guest1/upf_files/Si.pbe-n-kjpaw_psl.0.1.UPF
     MD5 check sum: b9d333a40e496bef61db012f150758bf
     Pseudo is Projector augmented-wave + core cor, Zval =  4.0
     Generated using "atomic" code by A. Dal Corso  v.5.0.2 svn rev. 9415
     Shape of augmentation charge: PSQ
     Using radial grid of 1141 points,  4 beta functions with: 
                l(1) =   0
                l(2) =   0
                l(3) =   1
                l(4) =   1
     Q(r) pseudized with 0 coefficients 


     atomic species   valence    mass     pseudopotential
        Si             4.00    28.08550     Si( 1.00)

     24 Sym. Ops. (no inversion) found



   Cartesian axes

     site n.     atom                  positions (alat units)
         1           Si  tau(   1) = (   0.2500000   0.2500000   0.2500000  )
         2           Si  tau(   2) = (   0.2500000   0.7500000   0.7500000  )
         3           Si  tau(   3) = (   0.7500000   0.7500000   0.2500000  )
         4           Si  tau(   4) = (   0.5000000   0.0000000   0.5000000  )
         5           Si  tau(   5) = (   0.7500000   0.2500000   0.7500000  )
         6           Si  tau(   6) = (   0.5000000   0.5000000   0.0000000  )
         7           Si  tau(   7) = (   0.0000000   0.0000000   0.0000000  )
         8           Si  tau(   8) = (   0.0000000   0.5000000   0.5000000  )

     number of k points=    10  Fermi-Dirac smearing, width (Ry)=  0.0036
                       cart. coord. in units 2pi/alat
        k(    1) = (   0.0833333   0.0833333   0.0833333), wk =   0.0740741
        k(    2) = (   0.0833333   0.0833333   0.2500000), wk =   0.2222222
        k(    3) = (   0.0833333   0.0833333   0.4166667), wk =   0.2222222
        k(    4) = (   0.0833333   0.2500000   0.2500000), wk =   0.2222222
        k(    5) = (   0.0833333   0.2500000   0.4166667), wk =   0.4444444
        k(    6) = (   0.0833333   0.4166667   0.4166667), wk =   0.2222222
        k(    7) = (   0.2500000   0.2500000   0.2500000), wk =   0.0740741
        k(    8) = (   0.2500000   0.2500000   0.4166667), wk =   0.2222222
        k(    9) = (   0.2500000   0.4166667   0.4166667), wk =   0.2222222
        k(   10) = (   0.4166667   0.4166667   0.4166667), wk =   0.0740741

     Dense  grid:    30215 G-vectors     FFT dimensions: (  40,  40,  40)

     Estimated max dynamical RAM per process >      42.32MB

     Check: negative/imaginary core charge=   -0.000003    0.000000

     Initial potential from superposition of free atoms

     starting charge   31.99553, renormalised to   32.00000
     Starting wfc are   32 randomized atomic wfcs
     Checking if some PAW data can be deallocated... 

     total cpu time spent up to now is        1.3 secs

     per-process dynamical memory:    60.0 Mb

     Self-consistent Calculation

     iteration #  1     ecut=    35.00 Ry     beta=0.70
     Davidson diagonalization with overlap
     ethr =  1.00E-02,  avg # of iterations =  2.9

     Threshold (ethr) on eigenvalues was too large:
     Diagonalizing with lowered threshold

     Davidson diagonalization with overlap
     ethr =  7.17E-04,  avg # of iterations =  1.3

     total cpu time spent up to now is        4.0 secs

     total energy              =    -373.80609756 Ry
     Harris-Foulkes estimate   =    -373.86147609 Ry
     estimated scf accuracy    <       0.22791412 Ry

     iteration #  2     ecut=    35.00 Ry     beta=0.70
     Davidson diagonalization with overlap
     ethr =  7.12E-04,  avg # of iterations =  1.0

     total cpu time spent up to now is        5.4 secs

     total energy              =    -373.81506020 Ry
     Harris-Foulkes estimate   =    -373.81551918 Ry
     estimated scf accuracy    <       0.00937619 Ry

     iteration #  3     ecut=    35.00 Ry     beta=0.70
     Davidson diagonalization with overlap
     ethr =  2.93E-05,  avg # of iterations =  5.0

     total cpu time spent up to now is        7.0 secs

     total energy              =    -373.81590879 Ry
     Harris-Foulkes estimate   =    -373.81594718 Ry
     estimated scf accuracy    <       0.00019251 Ry

     iteration #  4     ecut=    35.00 Ry     beta=0.70
     Davidson diagonalization with overlap
     ethr =  6.02E-07,  avg # of iterations =  4.3

     total cpu time spent up to now is        8.8 secs

     total energy              =    -373.81598464 Ry
     Harris-Foulkes estimate   =    -373.81598676 Ry
     estimated scf accuracy    <       0.00000574 Ry

     iteration #  5     ecut=    35.00 Ry     beta=0.70
     Davidson diagonalization with overlap
     ethr =  1.79E-08,  avg # of iterations =  3.1

     total cpu time spent up to now is       10.5 secs

     total energy              =    -373.81598700 Ry
     Harris-Foulkes estimate   =    -373.81598758 Ry
     estimated scf accuracy    <       0.00000137 Ry

     iteration #  6     ecut=    35.00 Ry     beta=0.70
     Davidson diagonalization with overlap
     ethr =  4.27E-09,  avg # of iterations =  2.0

     total cpu time spent up to now is       12.0 secs

     End of self-consistent calculation

          k = 0.0833 0.0833 0.0833 (  3818 PWs)   bands (ev):

    -5.6666  -2.2084  -2.2084  -2.2083  -0.9442  -0.9442  -0.9441   3.0332
     3.0332   3.0333   3.4312   3.4312   3.4312   5.3486   6.0644   6.0644
     6.9832   6.9832   6.9832   7.5523

          k = 0.0833 0.0833 0.2500 (  3776 PWs)   bands (ev):

    -5.4250  -3.3172  -2.1154  -2.1154  -0.9358  -0.9357   0.4092   2.4559
     2.4560   3.2372   3.2373   3.3043   3.6474   4.2793   5.4142   5.6045
     7.0993   7.7239   7.7239   8.0724

          k = 0.0833 0.0833 0.4167 (  3785 PWs)   bands (ev):

    -4.9458  -4.2381  -2.0073  -2.0072  -0.9435  -0.9435   1.7789   2.1242
     2.1243   2.9043   2.9044   3.0809   3.8526   4.0715   4.6676   4.6806
     7.4236   7.9340   8.9895   9.2336

          k = 0.0833 0.2500 0.2500 (  3772 PWs)   bands (ev):

    -5.1880  -3.1475  -3.1474  -2.2186  -0.8508   0.1843   0.1843   1.9974
     2.7806   2.7807   3.2641   3.5792   3.5793   3.8073   4.8222   5.8544
     7.4502   7.9367   7.9367   8.9216

          k = 0.0833 0.2500 0.4167 (  3774 PWs)   bands (ev):

    -4.7194  -4.0315  -2.8423  -2.4867  -0.6018  -0.2079   1.2356   1.9707
     2.2382   2.2915   3.3411   3.5762   3.7859   4.0418   4.2925   5.2264
     8.3328   8.3471   8.8280   9.4375

          k = 0.0833 0.4167 0.4167 (  3784 PWs)   bands (ev):

    -4.2753  -3.6349  -3.6348  -3.0902  -0.0971   0.5387   0.5387   1.3473
     2.1913   2.6943   2.6944   3.3050   4.4877   4.5533   4.5534   5.2787
     8.2331   8.9903   9.1894   9.1895

          k = 0.2500 0.2500 0.2500 (  3785 PWs)   bands (ev):

    -4.9574  -3.0381  -3.0381  -3.0380  -0.1765  -0.1765  -0.1765   2.2798
     2.6737   2.6737   2.6738   4.0028   4.0028   4.0028   5.4482   5.4482
     7.7300   7.7300   7.7300   8.2318

          k = 0.2500 0.2500 0.4167 (  3784 PWs)   bands (ev):

    -4.5044  -3.8492  -2.9084  -2.9084  -0.5261  -0.5261   0.5353   1.3406
     2.7386   2.7387   3.7755   4.0635   4.0635   4.3778   4.8908   4.9276
     8.2195   8.4993   8.5817   8.5817

          k = 0.2500 0.4167 0.4167 (  3761 PWs)   bands (ev):

    -4.0905  -3.5216  -3.5216  -3.1509  -0.5591  -0.1541  -0.1541   0.4904
     3.2168   3.6449   3.6449   4.3581   4.6154   4.6522   4.6522   5.2146
     8.3949   8.4124   8.8108   8.8108

          k = 0.4167 0.4167 0.4167 (  3782 PWs)   bands (ev):

    -3.7591  -3.3874  -3.3874  -3.3873  -0.6601  -0.6601  -0.6601  -0.2577
     4.4261   4.4261   4.4262   4.8317   4.8318   4.8318   5.0588   5.0588
     7.7973   8.2526   8.2526   8.2526

     the Fermi energy is     6.5121 ev

!    total energy              =    -373.81598724 Ry
     Harris-Foulkes estimate   =    -373.81598731 Ry
     estimated scf accuracy    <       0.00000009 Ry

     total all-electron energy =     -4640.582931 Ry

     The total energy is the sum of the following terms:

     one-electron contribution =      22.93706523 Ry
     hartree contribution      =       4.39095837 Ry
     xc contribution           =     -49.02139398 Ry
     ewald contribution        =     -67.18463937 Ry
     one-center paw contrib.   =    -284.93797627 Ry
     smearing contrib. (-TS)   =      -0.00000123 Ry

     convergence has been achieved in   6 iterations

     Writing output data file SCF.save
 
     init_run     :      1.09s CPU      1.14s WALL (       1 calls)
     electrons    :     10.52s CPU     10.68s WALL (       1 calls)

     Called by init_run:
     wfcinit      :      0.57s CPU      0.58s WALL (       1 calls)
     potinit      :      0.32s CPU      0.34s WALL (       1 calls)

     Called by electrons:
     c_bands      :      7.20s CPU      7.32s WALL (       7 calls)
     sum_band     :      1.33s CPU      1.36s WALL (       7 calls)
     v_of_rho     :      0.19s CPU      0.20s WALL (       7 calls)
     newd         :      0.09s CPU      0.11s WALL (       7 calls)
     PAW_pot      :      1.99s CPU      2.01s WALL (       7 calls)
     mix_rho      :      0.02s CPU      0.02s WALL (       7 calls)

     Called by c_bands:
     init_us_2    :      0.17s CPU      0.17s WALL (     150 calls)
     cegterg      :      6.52s CPU      6.64s WALL (      70 calls)

     Called by sum_band:
     sum_band:bec :      0.00s CPU      0.00s WALL (      70 calls)
     addusdens    :      0.11s CPU      0.13s WALL (       7 calls)

     Called by *egterg:
     h_psi        :      5.56s CPU      5.59s WALL (     276 calls)
     s_psi        :      0.32s CPU      0.32s WALL (     276 calls)
     g_psi        :      0.06s CPU      0.06s WALL (     196 calls)
     cdiaghg      :      0.21s CPU      0.29s WALL (     256 calls)

     Called by h_psi:
     h_psi:pot    :      5.52s CPU      5.55s WALL (     276 calls)
     h_psi:calbec :      0.33s CPU      0.33s WALL (     276 calls)
     vloc_psi     :      4.87s CPU      4.90s WALL (     276 calls)
     add_vuspsi   :      0.32s CPU      0.32s WALL (     276 calls)

     General routines
     calbec       :      0.44s CPU      0.44s WALL (     346 calls)
     fft          :      0.07s CPU      0.08s WALL (      93 calls)
     fftw         :      5.01s CPU      5.04s WALL (    9508 calls)
     davcio       :      0.00s CPU      0.03s WALL (      10 calls)
 
     Parallel routines
     fft_scatter  :      0.73s CPU      0.75s WALL (    9601 calls)
 
     PWSCF        :    11.85s CPU        12.11s WALL

 
   This run was terminated on:  10:40: 4   9Sep2018            

=------------------------------------------------------------------------------=
   JOB DONE.
=------------------------------------------------------------------------------=
